16
Lattice="-2.4041929478794346 2.6270283495506774 3.656651085943303 2.62722172224873 -2.4045375400429934 3.657017050825364 5.055615785040237 5.056294955948442 -6.957547685020824" Properties=species:S:1:pos:R:3:initial_magmoms:R:1:forces:R:3:magmoms:R:1 energy=-108.76258426718607 stress="-0.0002141665601871347 0.0015992674266426595 -0.00021918608461499832 0.0015992674266426595 -0.00021170946037442676 -0.00021027445553919451 -0.00021918608461499832 -0.00021027445553919451 -0.0017946369402824464" dipole="-5.558370812383801 0.2687227134213541 3.6392635117933896" magmom=0.5372660630355242 pbc="T T T"
Si       4.14735781       3.43644645      -5.21811593       0.00000000      -0.00426697       0.00417507      -0.00014015      -0.00669600 
Fe      -0.21513743      -0.37077883       0.01873453       2.20000000      -0.00283373       0.00088985       0.00600772       0.23676243 
Fe       1.59496508       0.93280498      -1.73927989       2.20000000       0.01401708      -0.01420230       0.00013345      -0.07496011 
Fe       2.89856592       2.74289734      -3.49742675       2.20000000      -0.00095259       0.00282267      -0.00576131       0.23694211 
Si       5.24539346       2.95017651      -3.10586966       0.00000000      -0.00308006       0.00287544      -0.01288705      -0.00445914 
Fe       1.42411507      -1.13472939       1.97325460       2.20000000       0.00055650       0.00597634      -0.00254936      -0.06599932 
Si       2.51048127       0.12359262       0.36164709       0.00000000      -0.00814367      -0.00215591       0.00236877      -0.00109237 
Si       3.87241382       1.26411530      -1.82677298       0.00000000       0.00128239      -0.01276081       0.00196081      -0.00318015 
Si       2.22944541       4.96542117      -3.67366483       0.00000000      -0.00285101       0.00313936       0.01285338      -0.00445945 
Si      -1.14019589       1.28228294       2.00475084       0.00000000       0.01265836      -0.00136014      -0.00210088      -0.00318045 
Si      -0.00005795       2.64499055      -0.18364744       0.00000000       0.00228169       0.00826754      -0.00241040      -0.00109048 
Fe       1.25846282       3.73101045      -1.79510629       2.20000000      -0.00607977      -0.00046629       0.00241893      -0.06592498 
Si       3.61801230       4.18886631      -1.56129782       0.00000000      -0.00090303       0.00103442       0.00000401      -0.00221378 
Si       0.26485765       0.35276919       3.92066669       0.00000000      -0.00220695       0.00092736       0.00470591      -0.00199264 
Fe       1.12005889       1.63084409       1.91726345       2.20000000       0.00078667      -0.00087908       0.00011395       0.36397245 
Si       2.39776750       2.48602113      -0.08588776       0.00000000      -0.00086557       0.00221160      -0.00470410      -0.00199428 
