4
Lattice="3.0849106230512824 -1.924418136421805e-10 -3.689739657148682e-10 -1.9244181423901654e-10 3.0849106230512824 -3.6897396430697454e-10 -6.613116025867583e-10 -6.613115988091144e-10 4.933219841490078" Properties=species:S:1:pos:R:3:initial_magmoms:R:1:forces:R:3:magmoms:R:1 energy=-30.177540042797315 stress="-0.0013639988718907067 1.3316344648341574e-10 -2.4323382533699155e-10 1.3316344648341574e-10 -0.0013639988718907067 -2.4323382533699155e-10 -2.4323382533699155e-10 -2.4323382533699155e-10 0.00011422937142511006" dipole="-9.104466727896015e-05 -9.10446672892012e-05 3.9205069506622654" magmom=3.2630173807088596 pbc="T T T"
Si       0.00000307       0.00000307       2.36345097       0.00000000      -0.00000001      -0.00000001       0.00771740      -0.05252615 
Si       1.54245839       1.54245839       3.80308295       0.00000000      -0.00000000      -0.00000000      -0.00771785      -0.05252614 
Fe       0.00000308       0.00000308      -0.12954200       2.20000000       0.00000000       0.00000000      -0.01694974       1.74623546 
Fe       1.54245839       1.54245839       1.36285606       2.20000000      -0.00000001      -0.00000001       0.01695016       1.74623565 
