9
Lattice="-1.5676783495623008 1.5677500465650014 1.5677503013012917 4.300176502928491 -4.299621227124919 3.8967764715464637 4.300178018474572 3.8967769676113524 -4.299622118071719" Properties=species:S:1:pos:R:3:initial_magmoms:R:1:forces:R:3:magmoms:R:1 energy=-68.75938581020515 stress="-0.00014379596082447473 -0.0014609840688098018 -0.0014618975194060416 -0.0014609840688098018 -0.000174497771547887 0.0014693617523393553 -0.0014618975194060416 0.0014693617523393553 -0.00017369225379767632" dipole="-0.18192229519768688 0.18119569835470462 0.3219929424907232" magmom=5.876910647269828 pbc="T T T"
Fe       0.92064696       1.34789059      -1.38423457       2.20000000       0.00605584       0.00758008       0.00759710       1.08920707 
Fe       2.86344988       2.60132634      -2.86275463       2.20000000      -0.00363042       0.00379895       0.00454661       1.60069023 
Si       0.33827122      -0.33817307       0.12480021       0.00000000       0.00642095      -0.00598619      -0.01228606      -0.06504342 
Fe       2.86344027      -0.13064095      -0.13080310       2.20000000      -0.00356117       0.00456070       0.00382747       1.60068845 
Si       4.17628677       0.82530400      -1.90681627       0.00000000       0.01172388      -0.00636196      -0.00631208      -0.06513893 
Fe       1.38436568      -1.38393637       1.81137903       2.20000000      -0.00809148       0.00729072      -0.00613546       1.08916116 
Si       4.63844640      -1.44270003       0.82647361       0.00000000       0.00644190      -0.01228535      -0.00596238      -0.06504285 
Fe       5.68455151       0.24389011      -0.21926626       2.20000000      -0.00815701      -0.00618031       0.00716977       1.08915650 
Si       2.93349571      -2.93339308       2.53087709       0.00000000      -0.00785922       0.00790577       0.00793645      -0.06247452 
