9
Lattice="-1.4410738515690584 1.441040096007213 1.4410400960072127 4.268244185611892 -4.2683282062 4.213350579282355 4.268244185611892 4.213350579282354 -4.268328206199998" Properties=species:S:1:pos:R:3:initial_magmoms:R:1:forces:R:3:magmoms:R:1 energy=-78.26832433892491 stress="-0.001027329360818366 1.808319896271374e-05 1.808319896271413e-05 1.808319896271374e-05 -0.0010340540777460305 -1.82546236179272e-05 1.808319896271413e-05 -1.82546236179272e-05 -0.0010340540777460303" dipole="-0.00080766242218923 -0.00013720841527119782 -0.00013720841536159851" magmom=17.505041221902644 pbc="T T T"
Fe       2.83396749      -0.01247794      -0.01247794       2.20000000       0.00627837      -0.00055070      -0.00055070       2.22727612 
Fe       4.26825054       1.38618279      -1.44115844       2.20000000       0.00001133      -0.00006856       0.00008014       2.38707736 
Fe       1.42848391      -1.42844985       1.39280539       2.20000000      -0.00055349       0.00059606       0.00631755       2.22734582 
Fe       4.26825054      -1.44115844       1.38618279       2.20000000       0.00001133       0.00008014      -0.00006856       2.38707736 
Fe       5.70253361      -0.04249725      -0.04249725       2.20000000      -0.00625881       0.00056085       0.00056085       2.22728172 
Fe       2.83977534      -2.83987395       2.82054701       2.20000000       0.00054010      -0.00061958      -0.00630819       2.22734870 
Fe       1.42848391       1.39280539      -1.42844985       2.20000000      -0.00055349       0.00631755       0.00059606       2.22734582 
Fe       2.83977534       2.82054701      -2.83987395       2.20000000       0.00054010      -0.00630819      -0.00061958       2.22734870 
Si       0.00000829       0.00000230       0.00000230       0.00000000      -0.00001454      -0.00000698      -0.00000698      -0.07129043 
