27
Lattice="-4.833686406919125 3.671694195773002 4.45951673662925 4.70485058650287 -3.768858562466119 4.446578538456436 4.781777113448117 3.7571681456488775 -4.575620424146763" Properties=species:S:1:pos:R:3:initial_magmoms:R:1:forces:R:3:magmoms:R:1 energy=-198.01079087514663 stress="-0.00017347366058830072 0.0005765763112041613 0.0010028568675833245 0.0005765763112041613 0.00017826061640204864 0.000754237984326638 0.0010028568675833245 0.000754237984326638 0.0005617479773276951" dipole="-6.481125355179732 12.483279901387954 0.697694499424409" magmom=8.047487402340096 pbc="T T T"
Si       1.19682725       1.22254412      -1.15943165       0.00000000       0.00596917       0.00712502       0.01834116      -0.03895782 
Si       2.81020584       2.56372144      -2.65565210       0.00000000       0.00596571       0.00247029      -0.01022157      -0.02037609 
Fe      -0.27891843       0.24984480       0.37913537       2.20000000      -0.00173399       0.00682091      -0.00000512       0.88757851 
Si       3.39171332      -0.28500033      -0.31208091       0.00000000      -0.00104423       0.00711210      -0.00713893      -0.02498597 
Si       4.60161399       1.00886507      -1.87919165       0.00000000      -0.00176093       0.00031428      -0.00191988      -0.00851995 
Si       1.43364302      -1.19194794       1.19657749       0.00000000      -0.00018739      -0.01030666       0.00472588      -0.01271872 
Fe       5.16464921      -1.31523433       1.34650980       2.20000000      -0.00213892       0.00265095       0.00170945       0.23385279 
Si       6.77855737       0.04438180      -0.38511894       0.00000000      -0.00267963       0.00117203       0.00284340      -0.02054745 
Si       3.48234667      -2.52617432       2.61769250       0.00000000       0.00113671      -0.00362578       0.00084414      -0.00681086 
Si      -0.51095657       2.76531946       0.80558366       0.00000000       0.00434544       0.00196104      -0.00355375      -0.03718900 
Fe       1.34243818       3.58864009      -0.85969338       2.20000000       0.00788597       0.01144962      -0.00377583       1.70421778 
Fe      -2.04982240       1.27716843       1.81762359       2.20000000       0.00237879       0.00517217      -0.00202886       1.63683795 
Si       1.68911325       1.64479580       1.15953241       0.00000000      -0.00735998      -0.01648966      -0.00589365      -0.01485646 
Fe       3.55368089       2.15803100      -0.25130516       2.20000000      -0.00069348      -0.00354396       0.00111387      -0.04210034 
Si      -0.14631754       0.10506155       2.93294006       0.00000000      -0.00078302       0.00092895       0.00282401      -0.02167728 
Si       3.66739599      -0.09041269       2.82119054       0.00000000      -0.00939132      -0.00414157      -0.00620263      -0.01120113 
Si       5.09067155       1.10678678       1.26165771       0.00000000       0.00118638       0.00386606       0.00077528      -0.02912021 
Fe       1.63544397      -1.34753939       3.65191404       2.20000000      -0.00818190      -0.00795884       0.00385667       0.03749505 
Fe      -2.47408100       3.85372302       1.63528952       2.20000000       0.01618870       0.00184934       0.00016880       0.47756105 
Fe      -0.50941922       5.01679735       0.26825920       2.20000000       0.00026496      -0.00828782       0.00240112       0.12609123 
Fe      -3.65632715       2.39221289       3.27281402       2.20000000      -0.00256359       0.00979044      -0.00588102       1.67971858 
Fe       0.37658926       2.33250316       3.05990122       2.20000000      -0.00207892      -0.01513595       0.01514101       0.25879527 
Fe       1.57853287       4.00214627       1.58025386       2.20000000       0.00180302       0.01866926      -0.01370093       0.13046526 
Fe      -1.62218936       1.17886255       4.49069739       2.20000000       0.00169571      -0.00688624       0.01117641       1.25354276 
Si       1.90493310       1.04135335       4.07558530       0.00000000      -0.00324018       0.00317476      -0.00675985      -0.01088977 
Fe       3.33895134       2.33993101       2.55478343       2.20000000       0.00689180      -0.00232680       0.00120420       0.26426908 
Si       0.05001968      -0.19398926       5.58202044       0.00000000      -0.01176346      -0.00607719      -0.00031811      -0.01965982 
