27
Lattice="-4.344026696251579 4.4147627879381925 4.414540302771892 4.207284299709878 -4.341783238900879 4.189754158274815 4.362621867541516 4.357208768172738 -4.329748812384072" Properties=species:S:1:pos:R:3:initial_magmoms:R:1:forces:R:3:magmoms:R:1 energy=-190.3479247194224 stress="0.0007476202089275829 0.0006963500312427614 -0.0004061056393646882 0.0006963500312427614 0.0004638325453234553 0.0006044701885367209 -0.0004061056393646882 0.0006044701885367209 0.000673678887476517" dipole="1.3562957710865977 -8.124735486302628 8.579761392901311" magmom=3.226317327100176 pbc="T T T"
Si       1.10308339       1.35277476      -1.35591881       0.00000000      -0.00321924       0.00607551      -0.00583654      -0.00333396 
Si       2.80005338       3.11324840      -2.97662013       0.00000000       0.00272851      -0.00992509       0.00433302      -0.00411155 
Fe      -0.41521749       0.52100445       0.18855268       2.20000000       0.00720396       0.00154338      -0.00170359       0.00735332 
Si       3.01420547      -0.54132991      -0.12064155       0.00000000      -0.01133129       0.00502269       0.00069275      -0.00934926 
Si       4.32279659       2.07216069      -1.37123575       0.00000000      -0.00143983       0.00027190       0.00711464      -0.01100653 
Si       0.95107481      -1.22086452       0.80930016       0.00000000       0.00638944      -0.00741586       0.00465106      -0.00941190 
Fe       4.68853863      -1.37379251       1.25136121       2.20000000      -0.00573880      -0.00088877      -0.00166605      -0.00075781 
Si       5.75482091       0.31623073      -0.21364936       0.00000000      -0.00214153       0.01615916      -0.00493001      -0.00270259 
Si       2.87962782      -2.81702881       2.43373397       0.00000000       0.00323054      -0.00177486      -0.00661135      -0.01776856 
Si       0.16872435       3.44398084      -0.08100012       0.00000000       0.00165130      -0.01715774       0.01014207      -0.01481826 
Fe       0.71601755       5.26712861      -1.40157435       2.20000000      -0.00173329       0.00450035       0.00809330       1.42702951 
Si      -1.56031690       1.31271350       2.12064890       0.00000000       0.00379599       0.00036830      -0.00566074      -0.02168786 
Si       1.49917744       1.63845666       1.13273937       0.00000000       0.00288287      -0.00189652       0.00639322      -0.00410010 
Fe       2.32585321       3.20361038      -0.74529316       2.20000000       0.00696371      -0.00752357       0.00165308       0.14090817 
Fe       0.50378973       0.15449843       2.85428228       2.20000000      -0.00270103      -0.00837535      -0.00095271       0.04992906 
Si       2.80601802      -0.12444463       2.45762494       0.00000000       0.00300184       0.01141598       0.00769468      -0.00993400 
Fe       3.80983982       1.37575804       0.75287208       2.20000000       0.00035321       0.00472933      -0.01352443       0.30190490 
Fe       2.08054766      -1.66836230       4.33693781       2.20000000      -0.00766083      -0.00196792       0.00547176      -0.03792528 
Si      -0.87151403       3.91456284       1.97229904       0.00000000       0.00328769      -0.00744248      -0.00011204      -0.00733916 
Fe      -0.27563013       5.69497065       0.78626768       2.20000000      -0.00680444       0.01347519       0.01350191       0.09262858 
Fe      -3.04364245       3.54371993       2.64160769       2.20000000       0.01003626       0.00162755      -0.01174206       0.02512699 
Si       0.52178975       2.40770410       3.43552061       0.00000000      -0.00616131      -0.00646700       0.00121023       0.00072086 
Fe       1.53706686       3.82840783       1.92095465       2.20000000      -0.00714164      -0.00588271      -0.01319380       0.17035831 
Fe      -1.82926858       1.45280062       4.58215225       2.20000000       0.00127381       0.01528591       0.00254862       1.38979098 
Si       1.62503680       0.78588327       4.90044473       0.00000000       0.00587073      -0.01525301      -0.00489967      -0.00552436 
Si       3.39895297       2.78324565       3.05642983       0.00000000       0.00766376       0.00217070      -0.00328602      -0.01667484 
Si      -0.47229323      -0.55948965       5.10733104       0.00000000      -0.01025396       0.00974222       0.00097418      -0.01746228 
