27
Lattice="-4.10459394543104 4.220082049464956 4.282497609141477 4.169200367293735 -4.3867573055449975 4.505276358158982 4.085679307774529 4.367863974652355 -4.445241836833668" Properties=species:S:1:pos:R:3:initial_magmoms:R:1:forces:R:3:magmoms:R:1 energy=-216.06994802246237 stress="0.0013366267913172375 0.0007046969419824292 0.00039454578138391536 0.0007046969419824292 -0.0016508379093694509 -0.0009172850850704622 0.00039454578138391536 -0.0009172850850704622 0.0016403661062978517" dipole="1.6281149520792288 2.71523014780826 -0.13676491179936592" magmom=32.861556123597666 pbc="T T T"
Si       0.27649567       0.42875863      -0.31651402       0.00000000       0.00206797      -0.01162324       0.01340710      -0.06539038 
Fe       1.52067322       1.74590886      -1.90843457       2.20000000       0.01204281      -0.00386409      -0.01130861       1.56870954 
Si       2.75954501       3.26011993      -3.27832184       0.00000000       0.01528771       0.01298704      -0.00199783      -0.07089224 
Fe       1.43178362      -1.28836920       1.43155935       2.20000000       0.00192567      -0.00132021      -0.01227027       2.20405927 
Fe       2.61907290       0.04174833      -0.30780685       2.20000000       0.00065253       0.01002569      -0.00142611       1.69840213 
Si       3.94710880       1.78395845      -1.65962841       0.00000000      -0.00257603       0.00791832      -0.00411788      -0.05874770 
Fe       2.89315685      -2.77536353       2.89314345       2.20000000       0.00588242      -0.00228650       0.00483243       1.91066636 
Si       4.06672761      -1.42590912       1.23571125       0.00000000      -0.02085783      -0.00712827       0.00110662      -0.06487416 
Si       5.34345810       0.32000706      -0.23958750       0.00000000       0.00355653       0.00545657       0.00021643      -0.05998306 
Fe      -1.45114370       1.27402115       1.45175802       2.20000000       0.00152771      -0.00178652      -0.00586590       1.87970207 
Fe       0.09559064       2.75290703       0.19198936       2.20000000       0.00325593       0.00601401       0.01274550       1.69455015 
Fe       1.29624286       4.18080052      -1.43906076       2.20000000       0.00967347       0.00224077      -0.00154308       2.29866104 
Fe       0.00843525      -0.07462447       2.96058990       2.20000000       0.00661995      -0.00347924       0.01239732       2.06692899 
Si       1.56971054       1.41012819       1.71697984       0.00000000      -0.00445865       0.00204021      -0.00116082      -0.06523062 
Fe       2.72969172       2.80745975       0.12589727       2.20000000       0.00085937      -0.02042643      -0.00644245       2.14017562 
Fe       1.34775090      -1.62022809       4.41202562       2.20000000      -0.00112485       0.00175826      -0.00062416       1.72675923 
Si       2.91184316      -0.31626213       3.21924542       0.00000000      -0.00411249      -0.01028160      -0.00731643      -0.07294912 
Fe       3.99286274       1.13405834       1.59417828       2.20000000      -0.01398471      -0.01271803      -0.00130230       1.75440867 
Si      -2.90656581       2.40962615       3.04731784       0.00000000      -0.00496733       0.00166468       0.00198781      -0.06423332 
Si      -1.46580062       3.97400681       1.48864635       0.00000000       0.00824620       0.00960134       0.00072702      -0.07416404 
Fe      -0.12525383       5.56582227       0.17299640       2.20000000       0.00551554       0.00472397       0.00973453       1.57363104 
Fe      -1.37925653       1.22818127       4.41619777       2.20000000      -0.00845648       0.01813861      -0.00221996       1.99335887 
Fe       0.04186156       2.69613275       2.96121821       2.20000000       0.00103060      -0.00469003      -0.01114158       1.99736524 
Fe       1.37352946       4.28402061       1.56224824       2.20000000      -0.01937808      -0.00207331       0.00535144       2.24818126 
Fe       0.12087954      -0.20342450       5.90386608       2.20000000      -0.00085623      -0.00213859       0.00228644       2.32971876 
Fe       1.48489568       1.20808528       4.38996293       2.20000000       0.00449104      -0.00789449       0.01256387       1.95330824 
Fe       2.86082274       2.98998986       3.14173184       2.20000000      -0.00351366       0.00761951      -0.00398462       1.48364699 
