16
Lattice="-2.839717517187009 2.798611023188012 2.84449309179177 2.798611023188012 -2.839717517187009 2.84449309179177 5.770628891437602 5.770628891437602 -5.7711959820392025" Properties=species:S:1:pos:R:3:initial_magmoms:R:1:forces:R:3:magmoms:R:1 energy=-135.8394938959727 stress="2.4925318711850903e-05 -0.00025202807790384636 0.0005369999772826143 -0.00025202807790384636 2.492531871185121e-05 0.0005369999772826143 0.0005369999772826143 0.0005369999772826143 -0.0010257598962632856" dipole="1.713721734546519 1.7137217345465428 -1.7151312667807568" magmom=27.103717921500852 pbc="T T T"
Fe       4.32798119       4.32798119      -4.32839541       2.20000000      -0.00001313      -0.00001313      -0.00000523       1.89810613 
Si      -0.06996531      -0.06996531       0.11752598       0.00000000       0.00199360       0.00199360      -0.01014274      -0.07665917 
Si       1.44266461       1.44266461      -1.44279775       0.00000000      -0.00004604      -0.00004604       0.00000048      -0.06629006 
Si       2.95529340       2.95529340      -3.00312209       0.00000000      -0.00198661      -0.00198661       0.01013486      -0.07665929 
Fe       5.72728617       2.90812162      -2.90615015       2.20000000       0.00001033       0.00000440       0.00000586       2.43202575 
Fe       1.44224566      -1.44652415       1.44277943       2.20000000      -0.00732498       0.00444841       0.01270849       2.07208886 
Fe       2.84196933       0.02280381      -0.02055250       2.20000000      -0.00000784      -0.00000377       0.00000106       2.16736364 
Fe       4.24170034       1.49213163      -1.48388463       2.20000000       0.00728775      -0.00440068      -0.01269778       2.07210502 
Fe       2.90812162       5.72728617      -2.90615015       2.20000000       0.00000440       0.00001033       0.00000586       2.43202575 
Fe      -1.44652415       1.44224566       1.44277943       2.20000000       0.00444841      -0.00732498       0.01270849       2.07208886 
Fe       0.02280381       2.84196933      -0.02055250       2.20000000      -0.00000377      -0.00000784       0.00000106       2.16736364 
Fe       1.49213163       4.24170034      -1.48388463       2.20000000      -0.00440068       0.00728775      -0.01269778       2.07210502 
Fe       4.30742487       4.30742487      -1.48390319       2.20000000       0.00003158       0.00003158       0.00000338       2.06803892 
Fe      -0.01686074      -0.01686074       2.84391995       2.20000000      -0.00620727      -0.00620727      -0.02226552       2.30800788 
Fe       1.42210776       1.42210776       1.40169225       2.20000000       0.00000239       0.00000239      -0.00000277       2.11636630 
Fe       2.86108307       2.86108307      -0.04052990       2.20000000       0.00620930       0.00620930       0.02223581       2.30801338 
