27
Lattice="-4.257073726877147 4.256936815323533 4.256936815323534 4.256936815323533 -4.257073726877147 4.256936815323534 4.256936815323533 4.256936815323533 -4.257073726877147" Properties=species:S:1:pos:R:3:initial_magmoms:R:1:forces:R:3:magmoms:R:1 energy=-241.04853394299428 stress="-0.001750418932810124 1.0079194605844614e-05 1.007919460584648e-05 1.0079194605844614e-05 -0.0017504189328101248 1.0079194605845444e-05 1.007919460584648e-05 1.0079194605845444e-05 -0.0017504189328101218" dipole="-0.0009978900641893819 -0.000997890065421547 -0.0009978900651196063" magmom=55.97692480086488 pbc="T T T"
Fe       2.84002155      -0.00013311       2.84002155       2.20000000      -0.00735464       0.00015589      -0.00735464       2.27730518 
Fe       4.25694040       1.41678472       1.41678472       2.20000000      -0.00015768       0.00735893       0.00735893       2.27730490 
Fe       1.41685137      -1.41698146       4.25694048       2.20000000       0.00741525      -0.00741350      -0.00000086       2.27730947 
Fe      -0.00005091       2.81875723      -0.00005091       2.20000000      -0.00000237      -0.00603990      -0.00000237       2.28612794 
Fe       1.41685137       4.25694048      -1.41698146       2.20000000       0.00741525      -0.00000086      -0.00741350       2.27730947 
Fe      -1.42607502       1.42611394       1.42611394       2.20000000      -0.00007397       0.00015662       0.00015662       2.11577527 
Fe       1.42618337       1.42618337       1.42618337       2.20000000       0.00004855       0.00004855       0.00004855       2.11587327 
Fe       2.84002155       2.84002155      -0.00013311       2.20000000      -0.00735464      -0.00735464       0.00015589       2.27730518 
Fe      -0.00005091      -0.00005091       2.81875723       2.20000000      -0.00000237      -0.00000237      -0.00603990       2.28612794 
Fe       1.41678472       1.41678472       4.25694040       2.20000000       0.00735893       0.00735893      -0.00015768       2.27730490 
Fe       2.83062316       2.83062316       2.83062316       2.20000000      -0.00004836      -0.00004836      -0.00004836       2.11587335 
Fe      -0.00007942      -0.00007942       5.69512464       2.20000000       0.00000342       0.00000342       0.00603143       2.28612788 
Fe      -1.41698146       4.25694048       1.41685137       2.20000000      -0.00741350      -0.00000086       0.00741525       2.27730947 
Fe      -0.00007942       5.69512464      -0.00007942       2.20000000       0.00000342       0.00603143       0.00000342       2.28612788 
Fe      -2.83099097       2.83082950       2.83082950       2.20000000       0.00006956      -0.00015452      -0.00015452       2.11577585 
Fe      -0.00013311       2.84002155       2.84002155       2.20000000       0.00015589      -0.00735464      -0.00735464       2.27730518 
Fe       1.41678472       4.25694040       1.41678472       2.20000000       0.00735893      -0.00015768       0.00735893       2.27730490 
Fe      -1.41698146       1.41685137       4.25694048       2.20000000      -0.00741350       0.00741525      -0.00000086       2.27730947 
Fe       4.25694048      -1.41698146       1.41685137       2.20000000      -0.00000086      -0.00741350       0.00741525       2.27730947 
Fe       5.69512464      -0.00007942      -0.00007942       2.20000000       0.00603143       0.00000342       0.00000342       2.28612788 
Fe       2.83082950      -2.83099097       2.83082950       2.20000000      -0.00015452       0.00006956      -0.00015452       2.11577585 
Fe       1.42611394       1.42611394      -1.42607502       2.20000000       0.00015662       0.00015662      -0.00007397       2.11577527 
Fe       2.83082950       2.83082950      -2.83099097       2.20000000      -0.00015452      -0.00015452       0.00006956       2.11577585 
Si       0.00000347       0.00000347       0.00000347       0.00000000      -0.00000217      -0.00000217      -0.00000217      -0.09515860 
Fe       2.81875723      -0.00005091      -0.00005091       2.20000000      -0.00603990      -0.00000237      -0.00000237       2.28612794 
Fe       4.25694048       1.41685137      -1.41698146       2.20000000      -0.00000086       0.00741525      -0.00741350       2.27730947 
Fe       1.42611394      -1.42607502       1.42611394       2.20000000       0.00015662      -0.00007397       0.00015662       2.11577527 
