8
Lattice="3.086299781560243 -3.1089628277321677e-09 -8.654306377770238e-10 2.4210203554895106e-09 4.930851230069802 1.1627112598652409e-08 -1.7308163409077466e-09 5.1686828871526655e-09 6.1726099696915115" Properties=species:S:1:pos:R:3:initial_magmoms:R:1:forces:R:3:magmoms:R:1 energy=-60.35479937048449 stress="-0.0006164171930253109 -3.1342639090384196e-09 1.40289094015544e-09 -3.1342639090384196e-09 4.0134684503885884e-05 1.0186697852246061e-08 1.40289094015544e-09 1.0186697852246061e-08 -0.000603566270843763" dipole="-0.00019384989455087964 7.8121756400374345 -0.0003794444229107188" magmom=6.535115775131171 pbc="T T T"
Si       1.54315318       3.80053027       4.62946346       0.00000000       0.00000011       0.00415519       0.00000704      -0.05300292 
Fe       0.00000297      -0.12905239       0.00000632       2.20000000       0.00000409      -0.02391596       0.00000262       1.75038521 
Si       1.54315319       3.80052990       1.54315921       0.00000000       0.00000018       0.00416846      -0.00000686      -0.05300301 
Fe       0.00000373      -0.12905127       3.08631132       2.20000000      -0.00000564      -0.02393825      -0.00000472       1.75039330 
Fe       1.54315346       1.36177144       4.62945982       2.20000000      -0.00000252       0.02393213       0.00001732       1.75039104 
Si       0.00000323       2.36304083       0.00000651       0.00000000       0.00000039      -0.00417422      -0.00000251      -0.05300252 
Fe       1.54315304       1.36177306       1.54316267       2.20000000       0.00000085       0.02391033      -0.00001543       1.75038757 
Si       0.00000316       2.36304128       3.08631149       0.00000000       0.00000194      -0.00413839      -0.00000017      -0.05300347 
