27
Lattice="-4.254509819602958 4.260125313090473 4.254399888414526 4.254399563223777 -4.260235359239984 4.254399563223777 4.254399888414525 4.260125313090473 -4.254509819602958" Properties=species:S:1:pos:R:3:initial_magmoms:R:1:forces:R:3:magmoms:R:1 energy=-238.48378772880514 stress="0.0009008286440790306 5.230554113701359e-06 3.378326894202624e-06 5.230554113701359e-06 -0.0020974452335527777 5.230554113698869e-06 3.378326894202624e-06 5.230554113698869e-06 0.0009008286440790299" dipole="-0.0012416024217350257 0.7524118150730277 -0.0012416024209362358" magmom=53.084011070675615 pbc="T T T"
Fe      -0.00003017      -0.00682566       5.69647653       2.20000000      -0.00010415      -0.00067933       0.00277484       2.30398333 
Fe       1.40366322       1.41990513       4.25442554       2.20000000      -0.00026746       0.00013316      -0.00025814       2.31922471 
Fe       2.81718961       2.81703161       2.81718961       2.20000000       0.01335307       0.00936384       0.01335307       2.10951976 
Fe      -2.81747308       2.81729207       2.81732946       2.20000000      -0.01363312       0.00921778       0.01357708       2.10960628 
Fe      -1.43706166       4.28291746       1.43703859       2.20000000       0.01362313      -0.00921234      -0.01356686       2.10960228 
Fe      -0.00006915       5.68016532      -0.00006915       2.20000000       0.00000768       0.00000024       0.00000768       2.33603692 
Fe      -1.40380026       1.42006938       4.25434385       2.20000000       0.00026498      -0.00014592       0.00026217       2.31922601 
Fe      -0.00010567       2.84680354       2.81229501       2.20000000       0.00009710       0.00066424      -0.00279851       2.30398486 
Fe       1.43707114       4.28306827       1.43707114       2.20000000      -0.01334912      -0.00935691      -0.01334912       2.10951479 
Fe       2.85406365      -2.84032892       2.85406365       2.20000000       0.00212202       0.00041706       0.00212202       2.04352542 
Fe       4.25440116      -1.41342669       1.44206483       2.20000000       0.00015118       0.00109432       0.00267961       2.30397327 
Fe       5.69647653      -0.00682566      -0.00003017       2.20000000       0.00277484      -0.00067933      -0.00010415       2.30398333 
Si      -0.00004518      -0.09422881      -0.00004518       0.00000000      -0.00004446       0.00318466      -0.00004446      -0.09624246 
Fe       1.40007001       1.42004287      -1.40009941       2.20000000      -0.00131461      -0.00000276       0.00132091       2.04337874 
Fe       2.81732946       2.81729207      -2.81747308       2.20000000       0.01357708       0.00921778      -0.01363312       2.10960628 
Fe       1.43700378      -1.44270112       1.43700378       2.20000000      -0.01334340       0.00891185      -0.01334340       2.10942313 
Fe       2.81230492      -0.00672042      -0.00002976       2.20000000      -0.00267183      -0.00111490      -0.00014998       2.30397240 
Fe       4.25434385       1.42006938      -1.40380026       2.20000000       0.00026217      -0.00014592       0.00026498       2.31922601 
Fe       1.44206483      -1.41342669       4.25440116       2.20000000       0.00267961       0.00109432       0.00015118       2.30397327 
Fe       2.81736946       0.02255217       2.81736946       2.20000000       0.01334162      -0.00890989       0.01334162       2.10942240 
Fe       4.25442554       1.41990513       1.40366322       2.20000000      -0.00025814       0.00013316      -0.00026746       2.31922471 
Fe      -1.40009941       1.42004287       1.40007001       2.20000000       0.00132091      -0.00000276      -0.00131461       2.04337874 
Si       0.00001965       2.93430906       0.00001965       0.00000000       0.00002197      -0.00316186       0.00002197      -0.09624258 
Fe       1.43703859       4.28291746      -1.43706166       2.20000000      -0.01356686      -0.00921234       0.01362313       2.10960228 
Fe      -0.00002976      -0.00672042       2.81230492       2.20000000      -0.00014998      -0.00111490      -0.00267183       2.30397240 
Fe       1.40030670       1.42018055       1.40030670       2.20000000      -0.00210592      -0.00042346      -0.00210592       2.04352056 
Fe       2.81229501       2.84680354      -0.00010567       2.20000000      -0.00279851       0.00066424       0.00009710       2.30398486 
