27
Lattice="-4.141281942684012 4.427955479785794 4.380791499029379 3.864871507783922 -4.559273225505517 4.247348587190529 4.766299799103653 5.16448052565037 -4.525716016489991" Properties=species:S:1:pos:R:3:initial_magmoms:R:1:forces:R:3:magmoms:R:1 energy=-177.18174370814725 stress="-0.0004891500017615687 0.0017510320322351948 0.0004948106398447538 0.0017510320322351948 -8.723647962887054e-05 0.0001570493292593683 0.0004948106398447538 0.0001570493292593683 0.0006204663219349721" dipole="-5.71814873346091 -3.2865879879594964 7.817855062021756" magmom=0.14917043577594313 pbc="T T T"
Si       3.34833786       2.33205653      -3.12877726       0.00000000      -0.00272602      -0.01209384      -0.00901449      -0.00053645 
Fe      -0.45094348      -0.90815154       0.67582229       2.20000000       0.00751155       0.00444660      -0.00481413       0.02938241 
Fe       1.53380964       1.60274799      -1.82341351       2.20000000       0.00579897       0.00085354       0.00455920       0.04321317 
Si       4.87579261       0.92784996      -1.72473789       0.00000000      -0.00610492       0.00739031      -0.00003261      -0.00196788 
Si       1.63215277      -0.64171511       1.68622084       0.00000000      -0.00526898      -0.00791558      -0.00486877       0.00028203 
Si       2.88459406       1.39667905       0.42712186       0.00000000       0.01243343       0.01183970       0.00147940      -0.00189957 
Si       6.01684433       0.38483953       0.61912440       0.00000000       0.01388354       0.00082050      -0.00354812      -0.00064401 
Si       3.12313446      -2.68395455       2.02876225       0.00000000      -0.01423060       0.00094641      -0.00083280      -0.00187446 
Fe       4.00640910      -0.63793693       1.21675043       2.20000000      -0.00622643       0.00035513       0.00353896      -0.00574995 
Si       1.56442166       3.79820140      -1.18520884       0.00000000      -0.00002811      -0.00417062      -0.00429082      -0.00207857 
Fe      -1.42453751       1.73984323       1.52335264       2.20000000      -0.00730451       0.00076213      -0.00023379      -0.00611551 
Si       0.36742396       1.51793489       0.21187052       0.00000000      -0.00154069       0.00196657       0.00409543      -0.00040070 
Fe       3.89307355       2.99704616      -1.03127430       2.20000000       0.00647926      -0.00329720       0.00187779       0.10992796 
Si      -0.61831386       0.19161285       3.03351239       0.00000000       0.00114439       0.00897983       0.00412020      -0.00123028 
Fe       1.33051754       1.70451397       2.28151173       2.20000000      -0.00497398      -0.00375917      -0.00586689      -0.02829721 
Si       4.85943346       2.76313609       1.15396300       0.00000000      -0.00572510      -0.00652584      -0.00601605      -0.00080123 
Si       1.50361992      -2.36075241       3.65977593       0.00000000       0.00824973       0.00004083       0.00665378      -0.00122749 
Si       3.06372432       0.45315770       3.26708663       0.00000000      -0.00486882      -0.00556130      -0.00009437       0.00001447 
Si       0.74748314       6.74006263      -0.70908620       0.00000000       0.00025586       0.02145212       0.00388763      -0.00106747 
Si      -3.16687103       3.93874546       3.26840828       0.00000000      -0.00400563       0.00078106       0.00013376      -0.00236252 
Si      -1.78609247       4.09425973       1.02669806       0.00000000      -0.00078010      -0.00378391       0.00856168      -0.00110117 
Si       2.13579268       5.16543970       0.66451318       0.00000000       0.00773424       0.00805347       0.00055564      -0.00098869 
Fe      -1.92679351       2.17586628       4.30593571       2.20000000      -0.00636761      -0.00309172      -0.00347504       0.07227584 
Si      -0.34498681       3.29261435       2.97826885       0.00000000      -0.00737614      -0.00093100      -0.00523385      -0.00081846 
Si       2.79885682       3.67299086       2.61470693       0.00000000       0.01156077      -0.00616172       0.00502744      -0.00045256 
Fe      -0.31790396      -0.15450151       5.36850817       2.20000000       0.00146626      -0.00240442       0.00047879       0.02384947 
Si       0.75882100       1.79390470       4.51411666       0.00000000       0.00098939      -0.00964207       0.00321038      -0.00075789 
