16
Lattice="-3.340747400348948 2.9769463872439985 3.327093093922461 3.22752854841046 -2.844559004911005 3.0834355002916336 5.978720207240407 4.928755038320286 -6.368108581831235" Properties=species:S:1:pos:R:3:initial_magmoms:R:1:forces:R:3:magmoms:R:1 energy=-105.91421308880628 stress="-0.0009508986346840188 6.7163909432424e-05 0.00011603071963872646 6.7163909432424e-05 -0.0005481277657189806 0.0007251315442590451 0.00011603071963872646 0.0007251315442590451 -0.00042922064982956913" dipole="6.4381805620389905 1.4584494384506066 -0.6110778567467139" magmom=0.014588129202465439 pbc="T T T"
Si       4.71113289       4.27144487      -4.96120073       0.00000000       0.00451875       0.01403027      -0.00024976      -0.00084060 
Fe      -0.02524435       0.13074652      -0.63727724       2.20000000      -0.00739625       0.00300832       0.00624467       0.01762157 
Si       2.10454545       0.88552790      -1.66549475       0.00000000      -0.01020425      -0.00627599      -0.00188008      -0.00038969 
Fe       2.61788539       3.00128904      -2.44533551       2.20000000      -0.02174406       0.00352848       0.00629770      -0.00590111 
Si       4.59824380       2.02364433      -2.06241884       0.00000000       0.02134782      -0.00526802       0.00768832       0.00003265 
Fe       0.94660380      -1.15444825       1.63045615       2.20000000      -0.00662876      -0.01654580      -0.00148034       0.00415156 
Si       4.02102505      -0.31689631      -0.67401126       0.00000000       0.00666839      -0.00993563       0.01424690      -0.00053241 
Fe       5.95374752       0.07937676      -1.91730026       2.20000000       0.00516025      -0.01468834      -0.01082222       0.02763685 
Fe       3.10873067       5.32509390      -3.71459762       2.20000000       0.01108889       0.00337046       0.00527042      -0.00761000 
Si      -2.70675184       1.75262544       0.85116036       0.00000000      -0.00944834      -0.00110272      -0.00147578      -0.00029595 
Si      -0.54729655       2.37104639      -0.20736970       0.00000000       0.00893976      -0.00085770      -0.01116504      -0.00071671 
Si       1.55150056       3.25571762      -0.52762408       0.00000000       0.00691847      -0.00238614      -0.01737256      -0.00054695 
Si       3.76054505       4.47394729      -1.21893677       0.00000000       0.00404644       0.00794398      -0.00277052      -0.00055816 
Si      -0.81872417       1.04608434       3.49103554       0.00000000      -0.01186110      -0.01007841      -0.00782040      -0.00041724 
Si       1.69348153       0.92984536       0.85450076       0.00000000      -0.00947223       0.02162793       0.00195836      -0.00074761 
Si       4.44610874       2.02492655       0.63297506       0.00000000       0.00808695       0.01349277       0.01316553      -0.00069258 
