
  ___ ___ ___ _ _ _  
 |   |   |_  | | | | 
 | | | | | . | | | | 
 |__ |  _|___|_____|  1.4.0
 |___|_|             

User:   rasmus@AsusN550
Date:   Wed Jan  2 17:12:13 2019
Arch:   x86_64
Pid:    11569
Python: 3.6.3
gpaw:   /home/rasmus/anaconda3/lib/python3.6/site-packages/gpaw
_gpaw:  /home/rasmus/anaconda3/lib/python3.6/site-packages/
        _gpaw.cpython-36m-x86_64-linux-gnu.so
ase:    /home/rasmus/anaconda3/lib/python3.6/site-packages/ase (version 3.17.0)
numpy:  /home/rasmus/.local/lib/python3.6/site-packages/numpy (version 1.15.1)
scipy:  /home/rasmus/.local/lib/python3.6/site-packages/scipy (version 1.1.0)
units:  Angstrom and eV
cores:  1

Input parameters:
  kpts: {density: 1.37,
         even: True}
  mode: {ecut: 600.0,
         name: pw}
  nbands: -100
  occupations: {name: fermi-dirac,
                width: 0.1}
  spinpol: True
  xc: PBE

System changes: positions, numbers, cell, pbc, initial_charges, initial_magmoms 

Initialize ...

Fe-setup:
  name: Iron
  id: 37abbd8d6c3c35915a9b583b742da910
  Z: 26
  valence: 8
  core: 18
  charge: 0.0
  file: /usr/share/gpaw-setups/Fe.PBE.gz
  cutoffs: 1.06(comp), 2.06(filt), 2.67(core), lmax=2
  valence states:
                energy  radius
    4s(2.00)    -5.291   1.164
    4p(0.00)    -1.326   1.058
    3d(6.00)    -7.505   1.058
    *s          21.920   1.164
    *p          25.885   1.058
    *d          19.706   1.058

  Using partial waves for Fe as LCAO basis

Si-setup:
  name: Silicon
  id: ee77bee481871cc2cb65ac61239ccafa
  Z: 14
  valence: 4
  core: 10
  charge: 0.0
  file: /usr/share/gpaw-setups/Si.PBE.gz
  cutoffs: 1.06(comp), 1.86(filt), 2.06(core), lmax=2
  valence states:
                energy  radius
    3s(2.00)   -10.812   1.058
    3p(2.00)    -4.081   1.058
    *s          16.399   1.058
    *p          23.130   1.058
    *d           0.000   1.058

  Using partial waves for Si as LCAO basis

Reference energy: -42505.798850

Spin-polarized calculation.
Magnetic moment: 2.200000

Occupation numbers:
  Fermi-Dirac: width=0.1000 eV

Convergence criteria:
  Maximum total energy change: 0.0005 eV / electron
  Maximum integral of absolute density change: 0.0001 electrons
  Maximum integral of absolute eigenstate change: 4e-08 eV^2
  Maximum number of iterations: 333

Symmetries present (total): 2

  ( 1  0  0)  ( 1  0  0)
  ( 0  1  0)  ( 0  0  1)
  ( 0  0  1)  ( 0  1  0)

144 k-points: 4 x 6 x 6 Monkhorst-Pack grid
42 k-points in the irreducible part of the Brillouin zone
       k-points in crystal coordinates                weights
   0:     0.12500000   -0.41666667   -0.41666667          2/144
   1:     0.12500000   -0.25000000   -0.41666667          4/144
   2:     0.12500000   -0.25000000   -0.25000000          2/144
   3:     0.12500000   -0.08333333   -0.41666667          4/144
   4:     0.12500000   -0.08333333   -0.25000000          4/144
   5:     0.12500000   -0.08333333   -0.08333333          2/144
   6:     0.12500000    0.08333333   -0.41666667          4/144
   7:     0.12500000    0.08333333   -0.25000000          4/144
   8:     0.12500000    0.08333333   -0.08333333          4/144
   9:     0.12500000    0.08333333    0.08333333          2/144
          ...
  41:     0.37500000    0.41666667    0.41666667          2/144

Wave functions: Plane wave expansion
  Cutoff energy: 600.000 eV
  Number of coefficients (min, max): 780, 807
  Pulay-stress correction: 0.000000 eV/Ang^3 (de/decut=0.000000)
  Using FFTW library
  ScaLapack parameters: grid=1x1, blocksize=None 

Eigensolver
   Davidson(niter=1, smin=None, normalize=True) 

Densities:
  Coarse grid: 24*12*12 grid
  Fine grid: 48*24*24 grid
  Total Charge: 0.000000 

Density mixing:
  Method: sum
  Backend: pulay
  Linear mixing parameter: 0.05
  Mixing with 5 old densities
  Damping of long wave oscillations: 50 

Hamiltonian:
  XC and Coulomb potentials evaluated on a 48*24*24 grid
  Using the PBE Exchange-Correlation functional
 

Memory estimate:
  Process memory now: 72.15 MiB
  Calculator: 126.19 MiB
    Density: 1.83 MiB
      Arrays: 0.92 MiB
      Localized functions: 0.65 MiB
      Mixer: 0.26 MiB
    Hamiltonian: 0.70 MiB
      Arrays: 0.69 MiB
      XC: 0.00 MiB
      Poisson: 0.00 MiB
      vbar: 0.02 MiB
    Wavefunctions: 123.66 MiB
      Arrays psit_nG: 110.68 MiB
      Eigensolver: 3.13 MiB
      Projections: 4.25 MiB
      Projectors: 5.08 MiB
      PW-descriptor: 0.51 MiB

Total number of cores used: 1

Number of atoms: 2
Number of atomic orbitals: 13
Number of bands in calculation: 107
Bands to converge: occupied states only
Number of valence electrons: 12

... initialized

Initializing position-dependent things.

Density initialized from atomic densities
Creating initial wave functions:
  13 bands from LCAO basis set
  94 bands from random numbers

                    
                    
                    
                    
        Fe          
                    
          Si        
                    
                    
                    
                    

Positions:
   0 Fe    -1.438000    1.438003    1.438003    ( 0.0000,  0.0000,  2.2000)
   1 Si    -0.000000    0.000003    0.000003    ( 0.0000,  0.0000,  0.0000)

Unit cell:
           periodic     x           y           z      points  spacing
  1. axis:    yes   -2.876000    2.876000    2.876000    24     0.1695
  2. axis:    yes    1.438000   -1.438000    1.438000    12     0.1695
  3. axis:    yes    1.438000    1.438000   -1.438000    12     0.1695

  Lengths:   4.981378   2.490689   2.490689
  Angles:  109.471221 109.471221 109.471221

Effective grid spacing dv^(1/3) = 0.1902

                     log10-error:    total        iterations:
           time      wfs    density  energy       fermi  poisson  magmom
iter:   1  17:14:08  +5.40   +inf   -14.444448    3               +1.7740
Timing:                              incl.     excl.
-----------------------------------------------------------
Hamiltonian:                         0.404     0.000   0.0% |
 Atomic:                             0.336     0.015   0.0% |
  XC Correction:                     0.320     0.320   0.2% |
 Calculate atomic Hamiltonians:      0.002     0.002   0.0% |
 Communicate:                        0.000     0.000   0.0% |
 Initialize Hamiltonian:             0.000     0.000   0.0% |
 Poisson:                            0.000     0.000   0.0% |
 XC 3D grid:                         0.065     0.065   0.0% |
LCAO initialization:                 2.419     0.440   0.3% |
 LCAO eigensolver:                   0.665     0.004   0.0% |
  Calculate projections:             0.004     0.004   0.0% |
  DenseAtomicCorrection:             0.012     0.012   0.0% |
  Distribute overlap matrix:         0.002     0.002   0.0% |
  Orbital Layouts:                   0.012     0.012   0.0% |
  Potential matrix:                  0.452     0.452   0.3% |
  Sum over cells:                    0.180     0.180   0.1% |
 LCAO to grid:                       0.997     0.997   0.6% |
 Set positions (LCAO WFS):           0.317     0.002   0.0% |
  Basic WFS set positions:           0.000     0.000   0.0% |
  Basis functions set positions:     0.000     0.000   0.0% |
  TCI: Calculate S, T, P:            0.315     0.315   0.2% |
PWDescriptor:                        0.007     0.007   0.0% |
SCF-cycle:                         160.440     0.060   0.0% |
 Davidson:                         112.106    20.582  12.5% |----|
  Subspace diag:                    38.635     0.053   0.0% |
   calc_h_matrix:                   16.637    16.637  10.1% |---|
   diagonalize:                      6.656     6.656   4.0% |-|
   rotate_psi:                      15.289    15.289   9.3% |---|
  calc. matrices:                   26.533    26.533  16.1% |-----|
  diagonalize:                      14.150    14.150   8.6% |--|
  rotate_psi:                       12.206    12.206   7.4% |--|
 Orthonormalize:                    48.274     0.016   0.0% |
  calc_s_matrix:                     2.330     2.330   1.4% ||
  inverse-cholesky:                 41.684    41.684  25.4% |---------|
  projections:                       0.762     0.762   0.5% |
  rotate_psi_s:                      3.481     3.481   2.1% ||
Set symmetry:                        0.006     0.006   0.0% |
Other:                               1.089     1.089   0.7% |
-----------------------------------------------------------
Total:                                       164.364 100.0%

Date: Wed Jan  2 17:14:57 2019
