
  ___ ___ ___ _ _ _  
 |   |   |_  | | | | 
 | | | | | . | | | | 
 |__ |  _|___|_____|  1.4.0
 |___|_|             

User:   rasmus@AsusN550
Date:   Sat Jan  5 18:13:28 2019
Arch:   x86_64
Pid:    5625
Python: 3.6.3
gpaw:   /home/rasmus/anaconda3/lib/python3.6/site-packages/gpaw
_gpaw:  /home/rasmus/anaconda3/lib/python3.6/site-packages/
        _gpaw.cpython-36m-x86_64-linux-gnu.so
ase:    /home/rasmus/anaconda3/lib/python3.6/site-packages/ase (version 3.17.0)
numpy:  /home/rasmus/.local/lib/python3.6/site-packages/numpy (version 1.15.1)
scipy:  /home/rasmus/.local/lib/python3.6/site-packages/scipy (version 1.1.0)
units:  Angstrom and eV
cores:  1

Input parameters:
  kpts: [2 2 2]
  mode: {ecut: 300.0,
         name: pw}
  nbands: -100
  occupations: {name: fermi-dirac,
                width: 0.1}
  spinpol: True
  symmetry: {do_not_symmetrize_the_density: True}
  xc: PBE

System changes: positions, numbers, cell, pbc, initial_charges, initial_magmoms 

Initialize ...

Fe-setup:
  name: Iron
  id: 37abbd8d6c3c35915a9b583b742da910
  Z: 26
  valence: 8
  core: 18
  charge: 0.0
  file: /usr/share/gpaw-setups/Fe.PBE.gz
  cutoffs: 1.06(comp), 2.06(filt), 2.67(core), lmax=2
  valence states:
                energy  radius
    4s(2.00)    -5.291   1.164
    4p(0.00)    -1.326   1.058
    3d(6.00)    -7.505   1.058
    *s          21.920   1.164
    *p          25.885   1.058
    *d          19.706   1.058

  Using partial waves for Fe as LCAO basis

Si-setup:
  name: Silicon
  id: ee77bee481871cc2cb65ac61239ccafa
  Z: 14
  valence: 4
  core: 10
  charge: 0.0
  file: /usr/share/gpaw-setups/Si.PBE.gz
  cutoffs: 1.06(comp), 1.86(filt), 2.06(core), lmax=2
  valence states:
                energy  radius
    3s(2.00)   -10.812   1.058
    3p(2.00)    -4.081   1.058
    *s          16.399   1.058
    *p          23.130   1.058
    *d           0.000   1.058

  Using partial waves for Si as LCAO basis

Reference energy: -143290.085051

Spin-polarized calculation.
Magnetic moment: 6.600000

Occupation numbers:
  Fermi-Dirac: width=0.1000 eV

Convergence criteria:
  Maximum total energy change: 0.0005 eV / electron
  Maximum integral of absolute density change: 0.0001 electrons
  Maximum integral of absolute eigenstate change: 4e-08 eV^2
  Maximum number of iterations: 333

Symmetries present (total): 2

  ( 1  0  0)  ( 1  0  0)
  ( 0  1  0)  ( 0  1  0)
  ( 0  0  1)  (-1 -1 -1)

8 k-points: 2 x 2 x 2 Monkhorst-Pack grid
3 k-points in the irreducible part of the Brillouin zone
       k-points in crystal coordinates                weights
   0:     0.25000000   -0.25000000    0.25000000          4/8
   1:     0.25000000    0.25000000   -0.25000000          2/8
   2:     0.25000000    0.25000000    0.25000000          2/8

Wave functions: Plane wave expansion
  Cutoff energy: 300.000 eV
  Number of coefficients (min, max): 1116, 1134
  Pulay-stress correction: 0.000000 eV/Ang^3 (de/decut=0.000000)
  Using FFTW library
  ScaLapack parameters: grid=1x1, blocksize=None 

Eigensolver
   Davidson(niter=1, smin=None, normalize=True) 

Densities:
  Coarse grid: 18*18*15 grid
  Fine grid: 36*36*30 grid
  Total Charge: 0.000000 

Density mixing:
  Method: sum
  Backend: pulay
  Linear mixing parameter: 0.05
  Mixing with 5 old densities
  Damping of long wave oscillations: 50 

Hamiltonian:
  XC and Coulomb potentials evaluated on a 36*36*30 grid
  Using the PBE Exchange-Correlation functional
 

Memory estimate:
  Process memory now: 73.05 MiB
  Calculator: 22.95 MiB
    Density: 2.26 MiB
      Arrays: 1.30 MiB
      Localized functions: 0.59 MiB
      Mixer: 0.37 MiB
    Hamiltonian: 0.98 MiB
      Arrays: 0.96 MiB
      XC: 0.00 MiB
      Poisson: 0.00 MiB
      vbar: 0.01 MiB
    Wavefunctions: 19.72 MiB
      Arrays psit_nG: 12.98 MiB
      Eigensolver: 4.64 MiB
      Projections: 1.36 MiB
      Projectors: 0.51 MiB
      PW-descriptor: 0.22 MiB

Total number of cores used: 1

Number of atoms: 8
Number of atomic orbitals: 47
Number of bands in calculation: 125
Bands to converge: occupied states only
Number of valence electrons: 44

... initialized

Initializing position-dependent things.

Density initialized from atomic densities
Creating initial wave functions:
  47 bands from LCAO basis set
  78 bands from random numbers

                                   
                                   
                                   
                                   
           Si                      
                                   
         Fe   Si     Si            
                         Si        
                   Fe   Fe         
                                   
                      Si           
                                   
                                   
                                   
                                   

Positions:
   0 Fe    -3.500458    2.566142    2.566162    ( 0.0000,  0.0000,  2.2000)
   1 Fe     0.778459    1.724723    1.724701    ( 0.0000,  0.0000,  2.2000)
   2 Fe     3.605833   -0.390381    2.564330    ( 0.0000,  0.0000,  2.2000)
   3 Si    -0.673084    0.451053    3.405766    ( 0.0000,  0.0000,  0.0000)
   4 Si     3.307179    2.166337    2.166328    ( 0.0000,  0.0000,  0.0000)
   5 Si     2.528703    0.441630    0.441628    ( 0.0000,  0.0000,  0.0000)
   6 Si     1.855617    0.892692    3.847409    ( 0.0000,  0.0000,  0.0000)
   7 Si    -2.423316    1.734126    4.688855    ( 0.0000,  0.0000,  0.0000)

Unit cell:
           periodic     x           y           z      points  spacing
  1. axis:    yes   -3.500470    2.566151    2.566151    18     0.2321
  2. axis:    yes    2.154291   -1.664038    4.245410    18     0.2321
  3. axis:    yes    2.903128    2.547295   -3.362153    15     0.2491

  Lengths:   5.042178   5.043164   5.120638
  Angles:  118.338747 118.332255  92.066279

Effective grid spacing dv^(1/3) = 0.2693

                     log10-error:    total        iterations:
           time      wfs    density  energy       fermi  poisson  magmom
iter:   1  18:13:36  +4.25   +inf   -52.711408    3               +4.0684
iter:   2  18:13:40  -0.06   +inf   -53.048747    3               +4.0537
iter:   3  18:13:44  -1.33   +inf   -53.066543    2               +4.0528
iter:   4  18:13:49  -1.78  -1.14   -52.611192    4               +4.1546
iter:   5  18:13:54  -1.74  -1.21   -52.444925    33              +5.0307
iter:   6  18:13:59  -2.04  -1.30   -52.417844    3               +5.0904
iter:   7  18:14:04  -1.08  -1.38   -52.511832    34              +4.6079
iter:   8  18:14:09  -2.40  -1.80   -52.490613    4               +4.7198
iter:   9  18:14:14  -2.45  -1.89   -52.499162    3               +4.4927
iter:  10  18:14:19  -3.02  -2.29   -52.488329    3               +4.4263
iter:  11  18:14:24  -4.04  -2.49   -52.489355    3               +4.3860
iter:  12  18:14:30  -3.93  -2.53   -52.497491    2               +4.2826
iter:  13  18:14:35  -4.31  -2.71   -52.498276    2               +4.2296
iter:  14  18:14:40  -5.08  -2.82   -52.499629    2               +4.1970
iter:  15  18:14:45  -5.19  -2.87   -52.502347    2               +4.1534
iter:  16  18:14:50  -4.56  -2.92   -52.507072    2               +4.0609
iter:  17  18:14:56  -4.95  -2.97   -52.509262    2               +4.0148
iter:  18  18:15:01  -3.95  -2.97   -52.502988    2               +4.0936
iter:  19  18:15:06  -3.22  -2.77   -52.518334    2               +3.8646
iter:  20  18:15:11  -4.18  -3.07   -52.528115    2               +3.6466
iter:  21  18:15:16  -3.65  -2.99   -52.526957    2               +3.6414
iter:  22  18:15:22  -4.46  -2.88   -52.524263    2               +3.6740
iter:  23  18:15:27  -4.90  -2.76   -52.524885    2               +3.6744
iter:  24  18:15:32  -4.59  -2.89   -52.528454    2               +3.6086
iter:  25  18:15:38  -4.18  -2.87   -52.535441    2               +3.4630
iter:  26  18:15:43  -3.79  -2.84   -52.531850    2               +3.5144
iter:  27  18:15:48  -4.82  -2.97   -52.533293    2               +3.4952
iter:  28  18:15:53  -5.72  -2.99   -52.533221    2               +3.4980
iter:  29  18:15:58  -5.29  -3.00   -52.534696    2               +3.4711
iter:  30  18:16:04  -3.08  -3.01   -52.552338    2               +3.0865
iter:  31  18:16:09  -3.30  -3.10   -52.554071    2               +3.0352
iter:  32  18:16:14  -2.76  -3.02   -52.525361    2               +3.4766
iter:  33  18:16:21  -3.19  -2.68   -52.530235    2               +3.5373
iter:  34  18:16:27  -3.00  -2.79   -52.546707    2               +3.2116
iter:  35  18:16:33  -3.49  -2.94   -52.547747    2               +3.1670
iter:  36  18:16:39  -4.58  -2.87   -52.552778    2               +3.0563
iter:  37  18:16:45  -4.33  -2.83   -52.552684    2               +3.0391
iter:  38  18:16:51  -5.09  -2.78   -52.551598    2               +3.0530
iter:  39  18:16:56  -4.48  -2.84   -52.555177    2               +2.9903
iter:  40  18:17:02  -3.69  -2.84   -52.547057    2               +3.1209
iter:  41  18:17:08  -4.30  -2.78   -52.547489    2               +3.1411
iter:  42  18:17:13  -3.59  -2.82   -52.557171    2               +2.9724
iter:  43  18:17:19  -3.67  -2.97   -52.553673    2               +3.0124
iter:  44  18:17:24  -5.51  -2.84   -52.553657    2               +3.0177
iter:  45  18:17:30  -4.54  -2.86   -52.549671    2               +3.0902
iter:  46  18:17:36  -3.20  -2.88   -52.563903    2               +2.8339
iter:  47  18:17:41  -3.80  -3.07   -52.566318    2               +2.7667
iter:  48  18:17:46  -4.77  -2.98   -52.568368    2               +2.7125
iter:  49  18:17:51  -4.28  -2.99   -52.565527    2               +2.7470
iter:  50  18:17:57  -5.44  -2.87   -52.563567    2               +2.7853
iter:  51  18:18:03  -5.13  -2.86   -52.560995    2               +2.8320
iter:  52  18:18:08  -3.59  -2.79   -52.570174    2               +2.6922
iter:  53  18:18:14  -4.02  -3.08   -52.569272    2               +2.6960
iter:  54  18:18:20  -3.63  -3.06   -52.557880    2               +2.8762
iter:  55  18:18:25  -2.97  -2.91   -52.574822    2               +2.6105
iter:  56  18:18:31  -4.09  -3.14   -52.581335    2               +2.4651
iter:  57  18:18:36  -3.50  -3.05   -52.574787    2               +2.5522
iter:  58  18:18:42  -4.16  -2.95   -52.578309    2               +2.5036
iter:  59  18:18:47  -4.29  -2.93   -52.574421    2               +2.5588
iter:  60  18:18:53  -3.54  -2.87   -52.584686    2               +2.4000
iter:  61  18:18:58  -4.24  -3.08   -52.593932    2               +2.2257
iter:  62  18:19:04  -3.34  -3.10   -52.585869    2               +2.3265
iter:  63  18:19:10  -3.43  -2.93   -52.597051    2               +2.1623
iter:  64  18:19:16  -3.52  -3.00   -52.590481    2               +2.2469
iter:  65  18:19:21  -3.44  -2.88   -52.601739    2               +2.0757
iter:  66  18:19:26  -4.40  -3.03   -52.608657    2               +1.9423
iter:  67  18:19:32  -3.65  -3.05   -52.604339    2               +1.9881
iter:  68  18:19:38  -5.21  -2.87   -52.603511    2               +2.0086
iter:  69  18:19:44  -3.92  -2.93   -52.610275    2               +1.9130
iter:  70  18:19:50  -3.88  -3.12   -52.606075    2               +1.9645
iter:  71  18:19:56  -3.87  -3.00   -52.612534    2               +1.8661
iter:  72  18:20:02  -4.33  -3.12   -52.611974    2               +1.8647
iter:  73  18:20:07  -3.90  -3.07   -52.619104    2               +1.7389
iter:  74  18:20:13  -3.68  -3.13   -52.614425    2               +1.8046
iter:  75  18:20:20  -4.88  -3.04   -52.613458    2               +1.8173
iter:  76  18:20:26  -5.47  -2.93   -52.612612    2               +1.8370
iter:  77  18:20:32  -3.88  -2.98   -52.619223    2               +1.7387
iter:  78  18:20:38  -4.81  -3.17   -52.621609    2               +1.6885
iter:  79  18:20:44  -4.12  -3.16   -52.618307    2               +1.7365
iter:  80  18:20:50  -4.22  -3.10   -52.621582    2               +1.6819
iter:  81  18:20:56  -5.13  -3.13   -52.621768    2               +1.6724
iter:  82  18:21:02  -4.64  -3.09   -52.619351    2               +1.7049
iter:  83  18:21:08  -3.94  -3.05   -52.624516    2               +1.6218
iter:  84  18:21:14  -4.36  -3.16   -52.623593    2               +1.6293
iter:  85  18:21:21  -5.12  -3.11   -52.624827    2               +1.6054
iter:  86  18:21:27  -5.74  -3.11   -52.625965    2               +1.5811
iter:  87  18:21:33  -3.96  -3.10   -52.620519    2               +1.6690
iter:  88  18:21:39  -3.87  -3.02   -52.624680    2               +1.6129
iter:  89  18:21:45  -4.70  -3.14   -52.628071    2               +1.5453
iter:  90  18:21:51  -4.16  -3.17   -52.625889    2               +1.5777
iter:  91  18:21:57  -3.50  -3.10   -52.633693    2               +1.4085
iter:  92  18:22:03  -3.88  -3.25   -52.633681    2               +1.3995
iter:  93  18:22:10  -3.71  -3.15   -52.627366    2               +1.5123
iter:  94  18:22:16  -3.42  -2.96   -52.634056    2               +1.3949
iter:  95  18:22:22  -4.49  -3.17   -52.634747    2               +1.3707
iter:  96  18:22:28  -4.09  -3.11   -52.631318    2               +1.4386
iter:  97  18:22:35  -4.55  -3.05   -52.632115    2               +1.4301
iter:  98  18:22:41  -5.48  -3.06   -52.632996    2               +1.4110
iter:  99  18:22:48  -4.59  -3.07   -52.635592    2               +1.3505
iter: 100  18:22:54  -3.43  -3.14   -52.642159    2               +1.1208
iter: 101  18:23:00  -3.92  -3.35   -52.644709    2               +1.0360
iter: 102  18:23:06  -3.75  -3.32   -52.643127    2               +1.0955
iter: 103  18:23:12  -4.87  -3.16   -52.642513    2               +1.1155
iter: 104  18:23:19  -4.24  -3.21   -52.639428    2               +1.2022
iter: 105  18:23:27  -4.47  -3.08   -52.639618    2               +1.2150
iter: 106  18:23:33  -3.27  -3.11   -52.644848    2               +0.9981
iter: 107  18:23:40  -4.10  -3.46   -52.647188    2               +0.9024
iter: 108  18:23:45  -4.63  -3.48   -52.648727    2               +0.8105
iter: 109  18:23:52  -3.37  -3.52   -52.645959    2               +0.9411
iter: 110  18:23:58  -3.88  -3.24   -52.647073    2               +0.9114
iter: 111  18:24:03  -3.91  -3.43   -52.649037    2               +0.7885
iter: 112  18:24:09  -4.48  -3.74   -52.650074    2               +0.7409
iter: 113  18:24:15  -5.03  -3.85   -52.650526    2               +0.7169
iter: 114  18:24:20  -5.61  -3.94   -52.650815    2               +0.7032
iter: 115  18:24:25  -5.83  -4.04   -52.650925    2               +0.7010
iter: 116  18:24:31  -6.49  -4.02   -52.650905    2               +0.7020
iter: 117  18:24:36  -5.98  -4.01   -52.651127    2               +0.6919
iter: 118  18:24:41  -6.63  -4.03   -52.651236    2               +0.6834
iter: 119  18:24:48  -6.30  -4.08   -52.651237    2               +0.6832
iter: 120  18:24:55  -6.68  -4.05   -52.651293    2               +0.6819
iter: 121  18:25:01  -5.33  -4.04   -52.650906    2               +0.7034
iter: 122  18:25:07  -4.46  -3.88   -52.651751    2               +0.6557
iter: 123  18:25:13  -5.39  -4.19   -52.652195    2               +0.6337
iter: 124  18:25:20  -5.68  -4.20   -52.652366    2               +0.6250
iter: 125  18:25:26  -5.33  -4.17   -52.652088    2               +0.6400
iter: 126  18:25:33  -5.35  -4.03   -52.652333    2               +0.6298
iter: 127  18:25:39  -5.66  -4.14   -52.652760    2               +0.6082
iter: 128  18:25:45  -6.02  -4.23   -52.653092    2               +0.5924
iter: 129  18:25:51  -5.82  -4.20   -52.653511    2               +0.5695
iter: 130  18:25:57  -5.74  -4.35   -52.653707    2               +0.5604
iter: 131  18:26:04  -5.62  -4.29   -52.653555    2               +0.5676
iter: 132  18:26:10  -6.58  -4.19   -52.653420    2               +0.5758
iter: 133  18:26:16  -6.71  -4.10   -52.653344    2               +0.5797
iter: 134  18:26:24  -6.11  -4.12   -52.653459    2               +0.5740
iter: 135  18:26:30  -4.97  -4.19   -52.654202    2               +0.5360
iter: 136  18:26:36  -4.89  -4.39   -52.654077    2               +0.5411
iter: 137  18:26:44  -6.34  -4.23   -52.653966    2               +0.5481
iter: 138  18:26:50  -5.80  -4.18   -52.654160    2               +0.5404
iter: 139  18:26:56  -6.00  -4.22   -52.654074    2               +0.5447
iter: 140  18:27:02  -5.47  -4.15   -52.654432    2               +0.5278
iter: 141  18:27:10  -6.01  -4.27   -52.654834    2               +0.5083
iter: 142  18:27:17  -4.30  -4.30   -52.653407    2               +0.5652
iter: 143  18:27:22  -3.90  -4.05   -52.655139    2               +0.4935
iter: 144  18:27:28  -4.68  -4.41   -52.655530    2               +0.4810
iter: 145  18:27:33  -4.16  -4.22   -52.653677    2               +0.5517
iter: 146  18:27:38  -4.52  -3.98   -52.653761    2               +0.5569
iter: 147  18:27:43  -5.86  -4.15   -52.653652    2               +0.5613
iter: 148  18:27:48  -6.03  -4.20   -52.653774    2               +0.5567
iter: 149  18:27:55  -4.70  -4.23   -52.654869    2               +0.5088
iter: 150  18:28:01  -4.82  -4.35   -52.654985    2               +0.5051
iter: 151  18:28:08  -5.08  -4.20   -52.654433    2               +0.5279
iter: 152  18:28:14  -5.32  -4.08   -52.654560    2               +0.5239
iter: 153  18:28:21  -7.32  -4.16   -52.654559    1               +0.5233
iter: 154  18:28:28  -5.23  -4.17   -52.655149    2               +0.4983
iter: 155  18:28:34  -5.43  -4.24   -52.655200    2               +0.4954
iter: 156  18:28:40  -6.60  -4.18   -52.655233    2               +0.4941
iter: 157  18:28:46  -5.02  -4.16   -52.654452    2               +0.5238
iter: 158  18:28:53  -4.66  -4.10   -52.655073    2               +0.5017
iter: 159  18:28:59  -5.44  -4.23   -52.654998    2               +0.5040
iter: 160  18:29:06  -5.68  -4.17   -52.654679    2               +0.5201
iter: 161  18:29:13  -6.33  -4.07   -52.654439    2               +0.5298
iter: 162  18:29:19  -5.46  -4.11   -52.653778    2               +0.5561
iter: 163  18:29:26  -4.24  -4.08   -52.655079    2               +0.5021
iter: 164  18:29:31  -5.21  -4.29   -52.656177    2               +0.4549
iter: 165  18:29:36  -4.44  -4.28   -52.655798    2               +0.4722
iter: 166  18:29:41  -4.36  -4.07   -52.653763    2               +0.5472
iter: 167  18:29:47  -4.11  -3.94   -52.654662    2               +0.5212
iter: 168  18:29:53  -5.91  -4.19   -52.655090    2               +0.5031
iter: 169  18:30:00  -4.52  -4.19   -52.654043    2               +0.5427
iter: 170  18:30:06  -4.99  -4.04   -52.654094    2               +0.5440
iter: 171  18:30:12  -6.46  -4.14   -52.654043    2               +0.5465
iter: 172  18:30:18  -5.51  -4.14   -52.654412    2               +0.5315
iter: 173  18:30:24  -5.09  -4.20   -52.655310    2               +0.4925
iter: 174  18:30:31  -4.36  -4.26   -52.654461    2               +0.5254
iter: 175  18:30:38  -4.32  -4.06   -52.655642    2               +0.4804
iter: 176  18:30:44  -5.29  -4.23   -52.656190    2               +0.4595
iter: 177  18:30:50  -4.92  -4.18   -52.655839    2               +0.4729
iter: 178  18:30:56  -5.05  -4.06   -52.656390    2               +0.4521
iter: 179  18:31:03  -5.78  -4.15   -52.656524    2               +0.4462
iter: 180  18:31:10  -6.43  -4.12   -52.656566    2               +0.4449
iter: 181  18:31:16  -6.23  -4.10   -52.656794    2               +0.4364
iter: 182  18:31:22  -5.84  -4.11   -52.656692    2               +0.4405
iter: 183  18:31:29  -5.81  -4.07   -52.656969    2               +0.4304
iter: 184  18:31:35  -4.40  -4.09   -52.658625    2               +0.3601
iter: 185  18:31:42  -4.59  -4.20   -52.659088    2               +0.3492
iter: 186  18:31:49  -5.13  -4.04   -52.658830    2               +0.3576
iter: 187  18:31:55  -5.26  -4.00   -52.658072    2               +0.3853
iter: 188  18:32:02  -5.75  -3.99   -52.657687    2               +0.4012
iter: 189  18:32:08  -5.11  -4.00   -52.658050    1               +0.3891
iter: 190  18:32:14  -5.94  -4.06   -52.658533    2               +0.3721
iter: 191  18:32:20  -5.28  -4.02   -52.658283    2               +0.3810
iter: 192  18:32:27  -5.81  -4.02   -52.658354    2               +0.3746
iter: 193  18:32:33  -6.15  -4.07   -52.658538    2               +0.3696
iter: 194  18:32:40  -4.55  -4.04   -52.657096    2               +0.4151
iter: 195  18:32:47  -4.19  -4.04   -52.658249    2               +0.3743
iter: 196  18:32:53  -5.39  -4.21   -52.658696    2               +0.3601
iter: 197  18:32:59  -5.73  -4.17   -52.658898    2               +0.3518
iter: 198  18:33:06  -5.53  -4.09   -52.658786    2               +0.3608
iter: 199  18:33:12  -6.40  -4.03   -52.658609    2               +0.3675
iter: 200  18:33:18  -5.50  -4.02   -52.657973    2               +0.3876
iter: 201  18:33:25  -4.85  -4.13   -52.658489    2               +0.3696
iter: 202  18:33:32  -6.00  -4.20   -52.658648    2               +0.3645
iter: 203  18:33:38  -6.37  -4.19   -52.658665    1               +0.3629
iter: 204  18:33:45  -5.55  -4.17   -52.658369    2               +0.3782
iter: 205  18:33:52  -5.99  -4.19   -52.658193    2               +0.3842
iter: 206  18:33:58  -5.62  -4.22   -52.658455    2               +0.3762
iter: 207  18:34:05  -6.45  -4.25   -52.658746    2               +0.3685
iter: 208  18:34:11  -5.87  -4.31   -52.659248    2               +0.3533
iter: 209  18:34:18  -5.64  -4.39   -52.659986    2               +0.3315
iter: 210  18:34:25  -5.30  -4.46   -52.660110    2               +0.3278
iter: 211  18:34:31  -6.18  -4.39   -52.660093    2               +0.3285
iter: 212  18:34:37  -6.49  -4.35   -52.659980    2               +0.3327
iter: 213  18:34:44  -6.81  -4.27   -52.659987    2               +0.3330
iter: 214  18:34:50  -6.86  -4.27   -52.660092    2               +0.3301
iter: 215  18:34:57  -5.93  -4.26   -52.660461    2               +0.3187
iter: 216  18:35:03  -6.30  -4.31   -52.660671    2               +0.3120
iter: 217  18:35:09  -5.96  -4.34   -52.660581    1               +0.3127
iter: 218  18:35:14  -5.35  -4.32   -52.659965    2               +0.3320
iter: 219  18:35:20  -4.48  -4.24   -52.661066    2               +0.2995
iter: 220  18:35:25  -5.31  -4.44   -52.661434    2               +0.2887
iter: 221  18:35:31  -4.79  -4.35   -52.660665    2               +0.3103
iter: 222  18:35:37  -5.32  -4.23   -52.660723    2               +0.3103
iter: 223  18:35:42  -7.03  -4.30   -52.660674    2               +0.3112
iter: 224  18:35:48  -7.11  -4.31   -52.660689    2               +0.3115
iter: 225  18:35:54  -6.43  -4.30   -52.660866    2               +0.3068
iter: 226  18:36:01  -6.69  -4.30   -52.660889    2               +0.3061
iter: 227  18:36:06  -4.96  -4.32   -52.661780    2               +0.2801
iter: 228  18:36:12  -5.24  -4.49   -52.662897    2               +0.2462
iter: 229  18:36:17  -4.90  -4.52   -52.663078    2               +0.2424
iter: 230  18:36:22  -4.78  -4.34   -52.662183    2               +0.2661
iter: 231  18:36:27  -5.38  -4.23   -52.662059    2               +0.2716
iter: 232  18:36:33  -5.81  -4.29   -52.662181    1               +0.2683
iter: 233  18:36:38  -6.11  -4.35   -52.662455    2               +0.2601
iter: 234  18:36:44  -6.45  -4.37   -52.662744    2               +0.2524
iter: 235  18:36:49  -6.04  -4.32   -52.662791    2               +0.2507
iter: 236  18:36:54  -4.85  -4.32   -52.661806    2               +0.2754
iter: 237  18:36:59  -4.28  -4.20   -52.662994    2               +0.2458
iter: 238  18:37:07  -5.20  -4.38   -52.663297    2               +0.2373
iter: 239  18:37:13  -5.59  -4.27   -52.663214    2               +0.2420
iter: 240  18:37:19  -6.22  -4.17   -52.663285    1               +0.2379
iter: 241  18:37:24  -6.29  -4.22   -52.663156    2               +0.2412
iter: 242  18:37:30  -6.63  -4.20   -52.663191    2               +0.2405
iter: 243  18:37:36  -4.92  -4.23   -52.664039    2               +0.2133
iter: 244  18:37:42  -4.63  -4.29   -52.663550    2               +0.2254
iter: 245  18:37:48  -4.73  -4.27   -52.664214    2               +0.2117
iter: 246  18:37:54  -4.40  -4.22   -52.663067    2               +0.2415
iter: 247  18:38:00  -4.05  -4.12   -52.664626    2               +0.1976
iter: 248  18:38:06  -5.18  -4.37   -52.665372    2               +0.1761
iter: 249  18:38:11  -4.11  -4.22   -52.663843    2               +0.2196
iter: 250  18:38:17  -5.01  -4.05   -52.663486    2               +0.2309
iter: 251  18:38:23  -5.18  -4.19   -52.663668    2               +0.2271
iter: 252  18:38:29  -6.83  -4.25   -52.663649    1               +0.2274
iter: 253  18:38:35  -7.07  -4.24   -52.663581    2               +0.2286
iter: 254  18:38:41  -5.05  -4.28   -52.664235    2               +0.2101
iter: 255  18:38:47  -5.03  -4.38   -52.664008    2               +0.2162
iter: 256  18:38:53  -6.41  -4.27   -52.663786    2               +0.2228
iter: 257  18:38:58  -5.22  -4.27   -52.664210    2               +0.2119
iter: 258  18:39:04  -6.28  -4.36   -52.664510    2               +0.2054
iter: 259  18:39:10  -5.68  -4.27   -52.665037    2               +0.1894
iter: 260  18:39:16  -5.59  -4.30   -52.665128    2               +0.1881
iter: 261  18:39:22  -5.63  -4.16   -52.664935    2               +0.1934
iter: 262  18:39:28  -4.94  -4.18   -52.664046    2               +0.2118
iter: 263  18:39:34  -3.85  -4.17   -52.665873    2               +0.1607
iter: 264  18:39:40  -4.04  -4.36   -52.665372    2               +0.1805
iter: 265  18:39:45  -4.58  -4.08   -52.666162    2               +0.1566
iter: 266  18:39:51  -4.39  -4.23   -52.665319    2               +0.1815
iter: 267  18:39:58  -4.31  -4.05   -52.666300    2               +0.1503
iter: 268  18:40:04  -5.23  -4.26   -52.667104    2               +0.1254
iter: 269  18:40:09  -3.99  -4.12   -52.665842    2               +0.1622
iter: 270  18:40:15  -4.92  -4.04   -52.665632    2               +0.1721
iter: 271  18:40:21  -5.81  -4.10   -52.665519    2               +0.1746
iter: 272  18:40:27  -5.58  -4.08   -52.665760    2               +0.1683
iter: 273  18:40:33  -5.90  -4.23   -52.665660    2               +0.1721
iter: 274  18:40:39  -5.52  -4.19   -52.665983    2               +0.1626
iter: 275  18:40:45  -5.32  -4.22   -52.665807    2               +0.1652
iter: 276  18:40:51  -4.84  -4.33   -52.666452    2               +0.1448
iter: 277  18:40:58  -5.34  -4.40   -52.666558    2               +0.1401
iter: 278  18:41:03  -5.42  -4.36   -52.666279    2               +0.1518
iter: 279  18:41:08  -6.00  -4.30   -52.666280    1               +0.1523
iter: 280  18:41:13  -4.96  -4.32   -52.666858    2               +0.1349
iter: 281  18:41:19  -4.12  -4.21   -52.665460    2               +0.1733
iter: 282  18:41:24  -4.60  -4.10   -52.665650    2               +0.1716
iter: 283  18:41:30  -5.77  -4.28   -52.665835    2               +0.1652
iter: 284  18:41:35  -6.83  -4.36   -52.665911    2               +0.1628
iter: 285  18:41:40  -5.61  -4.32   -52.666247    2               +0.1547
iter: 286  18:41:45  -5.89  -4.31   -52.666337    2               +0.1526
iter: 287  18:41:50  -6.57  -4.24   -52.666485    2               +0.1488
iter: 288  18:41:55  -5.73  -4.20   -52.666352    2               +0.1529
iter: 289  18:42:00  -6.08  -4.16   -52.666090    2               +0.1603
iter: 290  18:42:05  -5.75  -4.13   -52.666184    2               +0.1572
iter: 291  18:42:11  -5.24  -4.20   -52.666706    2               +0.1385
iter: 292  18:42:17  -4.82  -4.28   -52.667528    2               +0.1123
iter: 293  18:42:22  -4.78  -4.26   -52.667723    2               +0.1068
iter: 294  18:42:27  -4.92  -4.17   -52.667257    2               +0.1241
iter: 295  18:42:32  -5.34  -4.02   -52.667314    2               +0.1228
iter: 296  18:42:37  -4.69  -4.10   -52.666384    2               +0.1501
iter: 297  18:42:42  -3.76  -3.92   -52.667854    2               +0.0965
iter: 298  18:42:47  -4.28  -4.33   -52.668155    2               +0.0919
iter: 299  18:42:52  -5.60  -4.22   -52.668205    2               +0.0947
iter: 300  18:42:58  -4.14  -4.02   -52.666789    2               +0.1343
iter: 301  18:43:03  -3.94  -3.87   -52.667773    2               +0.1110
iter: 302  18:43:09  -5.16  -4.44   -52.668395    2               +0.0848
iter: 303  18:43:14  -5.11  -4.43   -52.668626    2               +0.0813
iter: 304  18:43:19  -5.70  -4.39   -52.668651    2               +0.0801
iter: 305  18:43:24  -4.37  -4.29   -52.667624    2               +0.1153
iter: 306  18:43:30  -4.40  -3.92   -52.667959    2               +0.1085
iter: 307  18:43:35  -6.09  -4.10   -52.668130    2               +0.1019
iter: 308  18:43:40  -5.17  -4.12   -52.668542    2               +0.0886
iter: 309  18:43:46  -5.08  -4.40   -52.668544    2               +0.0908
