8
Lattice="-3.5004702158047625 2.566151363519406 2.5661513635193836 3.5008348141959 -2.6422149955817296 2.6426861566729722 3.5008348141959007 2.6426861566729993 -2.642214995581702" Properties=species:S:1:pos:R:3:initial_magmoms:R:1:forces:R:3:magmoms:R:1 energy=-53.4271283064709 stress="-0.00756116679541697 -5.350437419301019e-05 -5.350437419301517e-05 -5.350437419301019e-05 0.0497349285317228 0.03319965428224194 -5.350437419301517e-05 0.03319965428224194 0.049734928531723795" dipole="0.0001311266460042674 -0.0003381634642223581 -0.0003381634643299643" magmom=1.6316052592788375 pbc="T T T"
Fe      -0.00000683      -0.00001218      -0.00001218       2.20000000      -0.00001272      -0.00010650      -0.00010650       1.08961902 
Fe       1.75041557       1.32135530      -1.32108681       2.20000000       0.00001651       0.00008816       0.00007391       0.31402730 
Fe       1.75041557      -1.32108681       1.32135530       2.20000000       0.00001651       0.00007391       0.00008816       0.31402730 
Si       3.50085098       0.00023292       0.00023292       0.00000000       0.00000051      -0.00003228      -0.00003228      -0.00793972 
Si      -1.75023146       1.28308081       1.28308081       0.00000000       0.00000221      -0.00000698      -0.00000698      -0.01205332 
Si       0.00018174       2.60442529      -0.03803014       0.00000000       0.00000338      -0.00000660       0.00000378      -0.01128308 
Si       0.00018174      -0.03803014       2.60442529       0.00000000       0.00000338       0.00000378      -0.00000660      -0.01128308 
Si       1.75060375       1.28330388       1.28330388       0.00000000      -0.00003049      -0.00001322      -0.00001322      -0.01195531 
