
  ___ ___ ___ _ _ _  
 |   |   |_  | | | | 
 | | | | | . | | | | 
 |__ |  _|___|_____|  1.3.1b1
 |___|_|             

User:   rasmusat@c25-6.local
Date:   Sun Dec 30 21:18:56 2018
Arch:   x86_64
Pid:    8850
Python: 2.7.12
gpaw:   /home/davidkl/.local/lib/python2.7/site-packages/gpaw
_gpaw:  /home/davidkl/.local/bin/gpaw-python
ase:    /home/davidkl/.local/lib/python2.7/site-packages/ase (version 3.16.2)
numpy:  /global/hds/software/cpu/eb3/Python/2.7.12-intel-2016b/lib/python2.7/site-packages/numpy-1.11.1-py2.7-linux-x86_64.egg/numpy (version 1.11.1)
scipy:  /global/hds/software/cpu/eb3/Python/2.7.12-intel-2016b/lib/python2.7/site-packages/scipy (version 0.17.1)
units:  Angstrom and eV
cores:  32

Input parameters:
  kpts: {density: 1.37,
         even: True}
  mode: {ecut: 600.0,
         name: pw}
  nbands: -100
  occupations: {name: fermi-dirac,
                width: 0.1}
  spinpol: True
  xc: PBE

System changes: positions, numbers, cell, pbc, initial_charges, initial_magmoms 

Initialize ...

Fe-setup:
  name: Iron
  id: 37abbd8d6c3c35915a9b583b742da910
  Z: 26
  valence: 8
  core: 18
  charge: 0.0
  file: /home/davidkl/gpaw-setups-0.9.20000/Fe.PBE.gz
  cutoffs: 1.06(comp), 2.06(filt), 2.67(core), lmax=2
  valence states:
                energy  radius
    4s(2.00)    -5.291   1.164
    4p(0.00)    -1.326   1.058
    3d(6.00)    -7.505   1.058
    *s          21.920   1.164
    *p          25.885   1.058
    *d          19.706   1.058

  Using partial waves for Fe as LCAO basis

Si-setup:
  name: Silicon
  id: ee77bee481871cc2cb65ac61239ccafa
  Z: 14
  valence: 4
  core: 10
  charge: 0.0
  file: /home/davidkl/gpaw-setups-0.9.20000/Si.PBE.gz
  cutoffs: 1.06(comp), 1.86(filt), 2.06(core), lmax=2
  valence states:
                energy  radius
    3s(2.00)   -10.812   1.058
    3p(2.00)    -4.081   1.058
    *s          16.399   1.058
    *p          23.130   1.058
    *d           0.000   1.058

  Using partial waves for Si as LCAO basis

Reference energy: -116556.974701

Spin-polarized calculation.
Magnetic moment:  4.400000

Occupation numbers:
  Fermi-Dirac: width=0.1000 eV

Convergence criteria:
  Maximum total energy change: 0.0005 eV / electron
  Maximum integral of absolute density change: 0.0001 electrons
  Maximum integral of absolute eigenstate change: 4e-08 eV^2
  Maximum number of iterations: 333

Symmetries present (total): 2

  ( 1  0  0)  ( 0  1  0)
  ( 0  1  0)  ( 1  0  0)
  ( 0  0  1)  ( 0  0  1)

32 k-points: 4 x 4 x 2 Monkhorst-Pack grid
10 k-points in the irreducible part of the Brillouin zone
       k-points in crystal coordinates                weights
   0:     0.12500000   -0.12500000    0.25000000          4/32
   1:     0.12500000    0.12500000   -0.25000000          2/32
   2:     0.12500000    0.12500000    0.25000000          2/32
   3:     0.37500000   -0.37500000    0.25000000          4/32
   4:     0.37500000   -0.12500000   -0.25000000          4/32
   5:     0.37500000   -0.12500000    0.25000000          4/32
   6:     0.37500000    0.12500000   -0.25000000          4/32
   7:     0.37500000    0.12500000    0.25000000          4/32
   8:     0.37500000    0.37500000   -0.25000000          2/32
   9:     0.37500000    0.37500000    0.25000000          2/32

Wave functions: Plane wave expansion
  Cutoff energy: 600.000 eV
  Number of coefficients (min, max): 3327, 3353
  Pulay-stress correction: 0.000000 eV/Ang^3 (de/decut=0.000000)
  Using FFTW library
  Eigensolver: None  MatrixOperator buffer_size: default value or 
                              see value of nblock in input file
Diagonalizer layout: Serial LAPACKOrthonormalizer layout: Serial LAPACK 

Davidson(niter=1, smin=None, normalize=True) 

Densities:
  Coarse grid: 24*24*24 grid
  Fine grid: 48*48*48 grid
  Total Charge: 0.000000 

Density mixing:
  Method: sum
  Backend: pulay
  Linear mixing parameter: 0.05
  Mixing with 5 old densities
  Damping of long wave oscillations: 50 

Hamiltonian:
  XC and Coulomb potentials evaluated on a 48*48*48 grid
  Using the PBE Exchange-Correlation functional
 

Memory estimate:
  Process memory now: 60.41 MiB
  Calculator: 21.27 MiB
    Density: 6.32 MiB
      Arrays: 3.69 MiB
      Localized functions: 1.57 MiB
      Mixer: 1.05 MiB
    Hamiltonian: 2.78 MiB
      Arrays: 2.74 MiB
      XC: 0.00 MiB
      Poisson: 0.00 MiB
      vbar: 0.04 MiB
    Wavefunctions: 12.18 MiB
      Arrays psit_nG: 4.09 MiB
      Eigensolver: 2.76 MiB
      Projections: 0.14 MiB
      Projectors: 2.55 MiB
      Overlap op: 1.92 MiB
      PW-descriptor: 0.72 MiB

Total number of cores used: 32
Parallelization over k-points and spin: 4
Parallelization over states: 8

Number of atoms: 8
Number of atomic orbitals: 42
Adjusting number of bands by +6 to match parallelization
Number of bands in calculation: 128
Bands to converge: occupied states only
Number of valence electrons: 40

... initialized

Initializing position-dependent things.

Density initialized from atomic densities
Creating initial wave functions:
  40 bands from LCAO basis set
  88 bands from random numbers

                             
                             
                             
                             
                             
                             
           Si                
         Si     Si           
             Sii             
           Fe     Si         
                Fe           
                             
                             
                             
                             
                             
                             

Positions:
   0 Fe    -0.000912   -0.000912    0.000223
   1 Fe     1.684374    1.684374   -1.828221
   2 Si     1.160531   -1.416450    1.582282
   3 Si     2.845873    0.268044   -0.247056
   4 Si    -1.416450    1.160531    1.582282
   5 Si     0.268044    2.845873   -0.247056
   6 Si    -0.256457   -0.256457    3.164299
   7 Si     1.428271    1.428271    1.334023

Unit cell:
           periodic     x           y           z      points  spacing
  1. axis:    yes   -2.833457    2.320322    3.164345    24     0.1615
  2. axis:    yes    2.320322   -2.833457    3.164345    24     0.1615
  3. axis:    yes    3.369783    3.369783   -3.658336    24     0.1799

  Lengths:   4.839985   4.839985   6.007852
  Angles:  117.230873 117.230873  97.693348

Effective grid spacing dv^(1/3) = 0.1936

                     log10-error:    total        iterations:
           time      wfs    density  energy       fermi  poisson  magmom
iter:   1  21:19:01  +4.92   +inf   -47.964583    3               +2.2696
iter:   2  21:19:03  +0.07   +inf   -48.358971    3               +2.2672
iter:   3  21:19:05  -1.32   +inf   -48.373213    2               +2.2669
iter:   4  21:19:07  -1.63  -1.08   -47.657137    4               +2.3928
iter:   5  21:19:09  -1.88  -1.17   -47.526804    32              +2.7186
iter:   6  21:19:11  -0.90  -1.24   -47.709880    33              +2.3078
iter:   7  21:19:14  -2.37  -1.55   -47.658556    3               +2.4131
iter:   8  21:19:16  -2.60  -1.78   -47.640027    3               +2.2780
iter:   9  21:19:18  -2.70  -2.11   -47.639824    2               +2.1795
iter:  10  21:19:20  -3.81  -2.58   -47.649953    2               +2.0912
iter:  11  21:19:22  -4.24  -2.96   -47.652975    2               +2.0518
iter:  12  21:19:25  -4.78  -3.02   -47.653874    2               +2.0380
iter:  13  21:19:27  -4.87  -3.04   -47.656801    2               +2.0083
iter:  14  21:19:29  -4.35  -3.14   -47.662292    2               +1.9471
iter:  15  21:19:31  -5.07  -3.23   -47.664977    2               +1.9067
iter:  16  21:19:34  -4.42  -3.23   -47.663574    2               +1.9163
iter:  17  21:19:36  -3.75  -3.11   -47.670174    2               +1.8335
iter:  18  21:19:38  -4.31  -3.34   -47.670207    2               +1.8244
iter:  19  21:19:40  -5.52  -3.30   -47.670251    2               +1.8207
iter:  20  21:19:42  -5.45  -3.22   -47.669782    2               +1.8255
iter:  21  21:19:45  -4.89  -3.07   -47.671262    2               +1.8055
iter:  22  21:19:47  -5.96  -3.02   -47.671866    2               +1.7942
iter:  23  21:19:49  -4.92  -3.05   -47.670408    2               +1.8145
iter:  24  21:19:51  -4.90  -3.37   -47.671448    2               +1.8031
iter:  25  21:19:53  -4.23  -3.40   -47.675008    2               +1.7445
iter:  26  21:19:56  -4.82  -3.36   -47.675681    2               +1.7265
iter:  27  21:19:58  -4.56  -3.40   -47.674204    2               +1.7469
iter:  28  21:20:00  -5.73  -3.35   -47.674030    2               +1.7516
iter:  29  21:20:02  -6.32  -3.32   -47.674098    2               +1.7514
iter:  30  21:20:05  -3.69  -3.31   -47.679426    2               +1.6514
iter:  31  21:20:07  -4.10  -3.41   -47.679383    1               +1.6429
iter:  32  21:20:09  -5.49  -3.36   -47.679729    2               +1.6322
iter:  33  21:20:11  -5.07  -3.39   -47.679088    2               +1.6430
iter:  34  21:20:13  -6.04  -3.29   -47.678540    2               +1.6547
iter:  35  21:20:16  -5.18  -3.36   -47.677349    2               +1.6785
iter:  36  21:20:18  -4.08  -3.26   -47.679845    2               +1.6337
iter:  37  21:20:20  -5.37  -3.48   -47.681013    2               +1.6022
iter:  38  21:20:22  -4.54  -3.49   -47.683244    2               +1.5410
iter:  39  21:20:25  -4.36  -3.54   -47.685843    2               +1.4525
iter:  40  21:20:27  -4.55  -3.60   -47.686776    2               +1.4121
iter:  41  21:20:29  -5.11  -3.62   -47.687784    2               +1.3683
iter:  42  21:20:31  -5.08  -3.66   -47.688118    2               +1.3486
iter:  43  21:20:33  -5.36  -3.72   -47.688661    2               +1.3215
iter:  44  21:20:36  -5.50  -3.82   -47.688866    2               +1.3074
iter:  45  21:20:38  -4.94  -3.80   -47.689653    2               +1.2718
iter:  46  21:20:40  -5.29  -3.92   -47.690392    2               +1.2334
iter:  47  21:20:42  -4.91  -3.92   -47.690449    2               +1.2256
iter:  48  21:20:44  -5.25  -3.86   -47.690207    2               +1.2329
iter:  49  21:20:47  -5.80  -3.62   -47.690321    2               +1.2286
iter:  50  21:20:49  -6.89  -3.64   -47.690323    2               +1.2278
iter:  51  21:20:51  -5.87  -3.64   -47.690121    2               +1.2360
iter:  52  21:20:53  -4.32  -3.63   -47.691142    2               +1.1901
iter:  53  21:20:55  -5.22  -3.85   -47.691491    2               +1.1682
iter:  54  21:20:58  -4.36  -3.81   -47.690728    2               +1.1987
iter:  55  21:21:00  -5.47  -3.68   -47.690468    2               +1.2145
iter:  56  21:21:02  -5.69  -3.58   -47.690010    2               +1.2364
iter:  57  21:21:04  -4.89  -3.65   -47.690340    2               +1.2277
iter:  58  21:21:07  -4.82  -3.64   -47.691021    2               +1.1950
iter:  59  21:21:09  -4.45  -3.79   -47.690473    2               +1.2148
iter:  60  21:21:11  -4.90  -3.68   -47.690876    2               +1.1997
iter:  61  21:21:13  -4.86  -3.70   -47.691587    2               +1.1624
iter:  62  21:21:15  -5.50  -3.79   -47.692043    2               +1.1346
iter:  63  21:21:18  -4.43  -3.76   -47.691461    2               +1.1574
iter:  64  21:21:20  -5.91  -3.73   -47.691322    2               +1.1674
iter:  65  21:21:22  -4.82  -3.71   -47.690518    2               +1.2045
iter:  66  21:21:24  -4.57  -3.59   -47.690897    2               +1.1962
iter:  67  21:21:26  -3.76  -3.65   -47.692597    2               +1.0923
iter:  68  21:21:29  -4.23  -3.87   -47.693165    2               +1.0603
iter:  69  21:21:31  -3.88  -3.76   -47.691935    2               +1.1160
iter:  70  21:21:33  -4.95  -3.56   -47.691561    2               +1.1431
iter:  71  21:21:35  -4.47  -3.61   -47.692113    2               +1.1225
iter:  72  21:21:38  -4.61  -3.69   -47.692935    2               +1.0721
iter:  73  21:21:40  -5.21  -3.69   -47.693454    2               +1.0366
iter:  74  21:21:42  -4.58  -3.66   -47.693278    2               +1.0429
iter:  75  21:21:44  -5.65  -3.60   -47.693460    2               +1.0344
iter:  76  21:21:46  -4.79  -3.62   -47.692985    2               +1.0583
iter:  77  21:21:49  -5.61  -3.53   -47.692795    2               +1.0702
iter:  78  21:21:51  -3.95  -3.65   -47.693917    2               +0.9995
iter:  79  21:21:53  -4.78  -3.86   -47.694408    2               +0.9639
iter:  80  21:21:55  -3.62  -3.90   -47.692643    2               +1.0500
iter:  81  21:21:57  -3.47  -3.55   -47.694177    2               +0.9744
iter:  82  21:22:00  -4.28  -3.81   -47.694143    2               +0.9742
iter:  83  21:22:02  -4.62  -3.69   -47.694818    2               +0.9328
iter:  84  21:22:04  -4.03  -3.74   -47.694062    2               +0.9736
iter:  85  21:22:06  -4.89  -3.59   -47.694158    2               +0.9765
iter:  86  21:22:09  -4.66  -3.63   -47.694636    2               +0.9458
iter:  87  21:22:11  -4.04  -3.71   -47.695614    2               +0.8514
iter:  88  21:22:13  -4.29  -4.00   -47.696176    2               +0.8175
iter:  89  21:22:15  -3.82  -3.90   -47.695168    2               +0.8789
iter:  90  21:22:17  -4.90  -3.58   -47.694910    2               +0.9096
iter:  91  21:22:20  -4.75  -3.63   -47.695072    2               +0.9084
iter:  92  21:22:22  -5.89  -3.71   -47.695168    2               +0.9030
iter:  93  21:22:24  -5.02  -3.77   -47.695542    2               +0.8755
iter:  94  21:22:26  -4.57  -3.94   -47.695252    1               +0.8928
iter:  95  21:22:28  -5.67  -3.77   -47.695279    2               +0.8933
iter:  96  21:22:31  -4.88  -3.80   -47.695622    2               +0.8671
iter:  97  21:22:33  -4.50  -3.87   -47.695263    2               +0.8893
iter:  98  21:22:35  -4.41  -3.72   -47.695742    2               +0.8569
iter:  99  21:22:37  -5.61  -4.00   -47.696012    2               +0.8324
iter: 100  21:22:40  -4.91  -4.04   -47.696487    2               +0.7873
iter: 101  21:22:42  -4.62  -4.39   -47.696539    2               +0.7833
iter: 102  21:22:44  -4.26  -4.14   -47.695794    2               +0.8330
iter: 103  21:22:46  -4.70  -3.74   -47.695838    2               +0.8422
iter: 104  21:22:48  -5.80  -3.81   -47.695817    2               +0.8464
iter: 105  21:22:51  -5.72  -3.83   -47.695926    2               +0.8395
iter: 106  21:22:53  -6.05  -3.86   -47.695888    2               +0.8415
iter: 107  21:22:55  -5.87  -3.83   -47.695760    2               +0.8511
iter: 108  21:22:57  -5.04  -3.77   -47.695976    2               +0.8360
iter: 109  21:22:59  -4.45  -3.89   -47.696550    2               +0.7806
iter: 110  21:23:02  -4.11  -4.34   -47.696316    2               +0.8009
iter: 111  21:23:04  -4.87  -3.92   -47.696547    2               +0.7841
iter: 112  21:23:06  -5.49  -4.01   -47.696521    2               +0.7847
iter: 113  21:23:08  -5.56  -3.96   -47.696374    2               +0.7964
iter: 114  21:23:10  -4.32  -3.84   -47.696867    2               +0.7527
iter: 115  21:23:13  -5.20  -4.25   -47.697103    2               +0.7308
iter: 116  21:23:15  -4.20  -4.24   -47.696554    2               +0.7713
iter: 117  21:23:17  -5.17  -3.85   -47.696441    2               +0.7876
iter: 118  21:23:19  -5.03  -3.82   -47.696589    2               +0.7798
iter: 119  21:23:21  -5.96  -3.89   -47.696540    2               +0.7831
iter: 120  21:23:24  -4.02  -3.87   -47.697202    2               +0.7100
iter: 121  21:23:26  -4.44  -4.63   -47.697493    2               +0.6913
iter: 122  21:23:28  -3.70  -4.24   -47.696128    2               +0.7810
iter: 123  21:23:30  -4.00  -3.69   -47.696582    2               +0.7776
iter: 124  21:23:32  -5.60  -3.86   -47.696644    2               +0.7737
iter: 125  21:23:35  -6.36  -3.88   -47.696658    2               +0.7723
iter: 126  21:23:37  -4.28  -3.88   -47.697206    2               +0.7152
iter: 127  21:23:39  -4.04  -4.18   -47.696930    2               +0.7417
iter: 128  21:23:41  -4.76  -3.78   -47.697127    2               +0.7270
iter: 129  21:23:43  -6.03  -4.05   -47.697185    2               +0.7218
iter: 130  21:23:46  -4.21  -3.99   -47.696380    2               +0.7777
iter: 131  21:23:48  -3.95  -3.74   -47.696987    2               +0.7405
iter: 132  21:23:50  -4.74  -4.06   -47.697466    2               +0.6875
iter: 133  21:23:52  -4.85  -4.52   -47.697751    2               +0.6635
iter: 134  21:23:55  -4.48  -4.33   -47.697499    2               +0.6849
iter: 135  21:23:57  -4.61  -4.01   -47.696825    2               +0.7363
iter: 136  21:23:59  -4.06  -3.80   -47.697309    1               +0.7083
iter: 137  21:24:01  -4.68  -4.12   -47.697091    2               +0.7258
iter: 138  21:24:03  -4.35  -3.95   -47.697518    2               +0.6860
iter: 139  21:24:06  -5.29  -4.34   -47.697721    2               +0.6663
iter: 140  21:24:08  -4.24  -4.32   -47.697214    2               +0.7066
iter: 141  21:24:10  -4.73  -3.89   -47.697324    2               +0.7057
iter: 142  21:24:12  -6.16  -4.00   -47.697250    2               +0.7124
iter: 143  21:24:14  -6.64  -3.96   -47.697221    2               +0.7160
iter: 144  21:24:17  -4.43  -3.97   -47.697648    2               +0.6720
iter: 145  21:24:19  -5.21  -4.29   -47.697899    2               +0.6481
iter: 146  21:24:21  -4.48  -4.25   -47.697643    2               +0.6703
iter: 147  21:24:23  -3.94  -3.99   -47.696174    2               +0.7665
iter: 148  21:24:25  -3.87  -3.68   -47.696753    2               +0.7606
iter: 149  21:24:28  -4.52  -3.90   -47.697170    2               +0.7218
iter: 150  21:24:30  -4.09  -4.07   -47.696663    2               +0.7607
iter: 151  21:24:32  -4.81  -3.80   -47.696776    2               +0.7594
iter: 152  21:24:34  -5.04  -3.90   -47.697022    2               +0.7380
iter: 153  21:24:36  -4.76  -4.02   -47.697459    2               +0.6906
iter: 154  21:24:39  -4.34  -4.29   -47.697371    2               +0.7011
iter: 155  21:24:41  -4.96  -3.98   -47.697003    2               +0.7304
iter: 156  21:24:43  -4.59  -3.85   -47.697240    2               +0.7158
iter: 157  21:24:45  -4.90  -3.99   -47.697002    2               +0.7344
iter: 158  21:24:47  -4.49  -3.87   -47.697357    2               +0.7042
iter: 159  21:24:50  -4.67  -4.06   -47.697830    2               +0.6491
iter: 160  21:24:52  -4.60  -4.46   -47.698014    2               +0.6363
iter: 161  21:24:54  -4.35  -4.16   -47.697548    2               +0.6742
iter: 162  21:24:56  -4.96  -3.90   -47.697559    2               +0.6805
iter: 163  21:24:58  -5.94  -3.96   -47.697570    2               +0.6811
iter: 164  21:25:01  -5.16  -3.99   -47.697773    2               +0.6614
iter: 165  21:25:03  -5.52  -4.12   -47.698015    2               +0.6354
iter: 166  21:25:05  -5.29  -4.25   -47.698090    2               +0.6279
iter: 167  21:25:07  -5.08  -4.16   -47.697921    2               +0.6425
iter: 168  21:25:09  -6.24  -4.02   -47.697818    2               +0.6533
iter: 169  21:25:12  -4.88  -3.99   -47.698027    2               +0.6346
iter: 170  21:25:14  -5.51  -4.15   -47.698034    2               +0.6334
iter: 171  21:25:16  -5.56  -4.08   -47.698176    2               +0.6187
iter: 172  21:25:18  -5.96  -4.18   -47.698230    2               +0.6126
iter: 173  21:25:20  -5.40  -4.16   -47.698120    2               +0.6224
iter: 174  21:25:23  -6.33  -4.06   -47.698096    2               +0.6256
iter: 175  21:25:25  -6.55  -4.08   -47.698026    2               +0.6324
iter: 176  21:25:27  -4.73  -4.07   -47.697555    2               +0.6711
iter: 177  21:25:29  -3.54  -3.91   -47.698356    2               +0.5704
iter: 178  21:25:31  -4.09  -4.58   -47.698744    2               +0.5558
iter: 179  21:25:34  -4.31  -4.53   -47.698350    2               +0.5911
iter: 180  21:25:36  -5.41  -4.04   -47.698045    2               +0.6222
iter: 181  21:25:38  -5.18  -3.98   -47.698000    2               +0.6331
iter: 182  21:25:40  -5.51  -4.04   -47.698044    2               +0.6313
iter: 183  21:25:43  -7.00  -4.11   -47.698057    2               +0.6302
iter: 184  21:25:45  -6.99  -4.10   -47.698040    2               +0.6314
iter: 185  21:25:47  -7.39  -4.13   -47.698049    2               +0.6311
iter: 186  21:25:49  -5.16  -4.10   -47.698252    2               +0.6105
iter: 187  21:25:51  -4.85  -4.25   -47.698609    2               +0.5666
iter: 188  21:25:54  -4.88  -5.02   -47.698773    2               +0.5531
iter: 189  21:25:56  -3.97  -4.57   -47.697917    2               +0.6201
iter: 190  21:25:58  -3.98  -3.92   -47.698389    2               +0.5952
iter: 191  21:26:00  -5.61  -4.29   -47.698428    2               +0.5910
iter: 192  21:26:02  -6.69  -4.23   -47.698472    2               +0.5862
iter: 193  21:26:05  -4.67  -4.25   -47.698806    2               +0.5461
iter: 194  21:26:07  -4.87  -4.85   -47.698904    2               +0.5386
iter: 195  21:26:09  -4.41  -4.48   -47.698442    2               +0.5784
iter: 196  21:26:11  -4.53  -4.07   -47.698633    2               +0.5684
iter: 197  21:26:13  -5.60  -4.27   -47.698785    2               +0.5522
iter: 198  21:26:16  -6.16  -4.36   -47.698895    2               +0.5399
iter: 199  21:26:18  -5.83  -4.39   -47.699057    2               +0.5215
iter: 200  21:26:20  -5.23  -4.50   -47.699041    2               +0.5232
iter: 201  21:26:22  -6.98  -4.32   -47.699049    2               +0.5222
iter: 202  21:26:24  -6.58  -4.33   -47.699097    2               +0.5171
iter: 203  21:26:27  -4.88  -4.38   -47.699359    2               +0.4849
iter: 204  21:26:29  -5.40  -4.97   -47.699508    2               +0.4691
iter: 205  21:26:31  -5.31  -4.85   -47.699495    2               +0.4708
iter: 206  21:26:33  -5.86  -4.55   -47.699413    2               +0.4793
iter: 207  21:26:35  -5.00  -4.39   -47.699578    2               +0.4613
iter: 208  21:26:38  -6.11  -4.69   -47.699713    2               +0.4457
iter: 209  21:26:40  -5.96  -4.62   -47.699860    2               +0.4272
iter: 210  21:26:42  -5.96  -4.83   -47.699962    2               +0.4147
iter: 211  21:26:44  -5.28  -4.94   -47.699912    2               +0.4209
iter: 212  21:26:46  -6.26  -4.52   -47.699832    2               +0.4298
iter: 213  21:26:49  -4.98  -4.46   -47.699991    2               +0.4116
iter: 214  21:26:51  -5.85  -4.69   -47.700049    2               +0.4050
iter: 215  21:26:53  -6.63  -4.55   -47.700107    2               +0.3974
iter: 216  21:26:55  -5.92  -4.63   -47.700094    2               +0.3987
iter: 217  21:26:57  -7.42  -4.53   -47.700098    1               +0.3982

Converged after 217 iterations.

Dipole moment: (0.003621, 0.003621, -0.000097) |e|*Ang

Total magnetic moment: 0.398232
Local magnetic moments:
   0 Fe 0.227633
   1 Fe 0.227470
   2 Si -0.002864
   3 Si -0.002865
   4 Si -0.002864
   5 Si -0.002865
   6 Si 0.001490
   7 Si 0.001487

Energy contributions relative to reference atoms: (reference = -116556.974701)

Kinetic:        +60.955220
Potential:      -41.724490
External:        +0.000000
XC:             -66.825480
Entropy (-ST):   -0.174265
Local:           -0.018215
--------------------------
Free energy:    -47.787231
Extrapolated:   -47.700098

Spin contamination: 0.062547 electrons
Fermi level: 10.75894

Warning: Showing only first 2 kpts
                      Up                     Down
 Kpt  Band  Eigenvalues  Occupancy  Eigenvalues  Occupancy
  0    18     10.02438    0.12492     10.17928    0.12462
  0    19     10.76452    0.06076     10.92375    0.02017
  0    20     10.99176    0.01110     11.09322    0.00427
  0    21     11.13243    0.00291     11.22678    0.00115

  1    18     10.10694    0.06241     10.25814    0.06208
  1    19     10.24952    0.06212     10.41724    0.06051
  1    20     10.62937    0.04907     10.75524    0.03183
  1    21     11.01131    0.00464     11.13897    0.00137



Forces in eV/Ang:
  0 Fe   -0.00620   -0.00620   -0.00020
  1 Fe   -0.00371   -0.00371    0.00387
  2 Si    0.00356    0.00087    0.00127
  3 Si    0.00722   -0.00164    0.00050
  4 Si    0.00087    0.00356    0.00127
  5 Si   -0.00164    0.00722    0.00050
  6 Si    0.00086    0.00086   -0.00151
  7 Si   -0.00095   -0.00095   -0.00569

Stress tensor:
    -0.017079     0.041324     0.007875
     0.041324    -0.017079     0.007875
     0.007875     0.007875    -0.091489
Writing to fesi_8atoms_id11.gpw (mode='')

System changes: positions, cell 

Initialize ...

Fe-setup:
  name: Iron
  id: 37abbd8d6c3c35915a9b583b742da910
  Z: 26
  valence: 8
  core: 18
  charge: 0.0
  file: /home/davidkl/gpaw-setups-0.9.20000/Fe.PBE.gz
  cutoffs: 1.06(comp), 2.06(filt), 2.67(core), lmax=2
  valence states:
                energy  radius
    4s(2.00)    -5.291   1.164
    4p(0.00)    -1.326   1.058
    3d(6.00)    -7.505   1.058
    *s          21.920   1.164
    *p          25.885   1.058
    *d          19.706   1.058

  Using partial waves for Fe as LCAO basis

Si-setup:
  name: Silicon
  id: ee77bee481871cc2cb65ac61239ccafa
  Z: 14
  valence: 4
  core: 10
  charge: 0.0
  file: /home/davidkl/gpaw-setups-0.9.20000/Si.PBE.gz
  cutoffs: 1.06(comp), 1.86(filt), 2.06(core), lmax=2
  valence states:
                energy  radius
    3s(2.00)   -10.812   1.058
    3p(2.00)    -4.081   1.058
    *s          16.399   1.058
    *p          23.130   1.058
    *d           0.000   1.058

  Using partial waves for Si as LCAO basis

Reference energy: -116556.974701

Spin-polarized calculation.
Magnetic moment:  4.400000

Occupation numbers:
  Fermi-Dirac: width=0.1000 eV

Convergence criteria:
  Maximum total energy change: 0.0005 eV / electron
  Maximum integral of absolute density change: 0.0001 electrons
  Maximum integral of absolute eigenstate change: 4e-08 eV^2
  Maximum number of iterations: 333

Symmetries present (total): 2

  ( 1  0  0)  ( 0  1  0)
  ( 0  1  0)  ( 1  0  0)
  ( 0  0  1)  ( 0  0  1)

32 k-points: 4 x 4 x 2 Monkhorst-Pack grid
10 k-points in the irreducible part of the Brillouin zone
       k-points in crystal coordinates                weights
   0:     0.12500000   -0.12500000    0.25000000          4/32
   1:     0.12500000    0.12500000   -0.25000000          2/32
   2:     0.12500000    0.12500000    0.25000000          2/32
   3:     0.37500000   -0.37500000    0.25000000          4/32
   4:     0.37500000   -0.12500000   -0.25000000          4/32
   5:     0.37500000   -0.12500000    0.25000000          4/32
   6:     0.37500000    0.12500000   -0.25000000          4/32
   7:     0.37500000    0.12500000    0.25000000          4/32
   8:     0.37500000    0.37500000   -0.25000000          2/32
   9:     0.37500000    0.37500000    0.25000000          2/32

